                         Program Version 5.0.4 -  RELEASE  -
|  1> ! r2SCAN-3c ENERGY TightSCF defgrid3 def2/J
|  2> %maxcore 8000
|  3> %PAL NPROCS 8 END
|  4> %CPCM SMD TRUE
|  5>       SMDSOLVENT "MeCN"
|  6> END
|  7> *xyzfile 2 1  xtbopt.xyz
|  8>
|  9>                          ****END OF INPUT****

CARTESIAN COORDINATES (ANGSTROEM)
---------------------------------
  Ca     0.740714   -3.121701    0.162172
  C     -1.275826    0.839669    2.044948
  C     -0.626895   -0.136325    1.235696
  N     -0.088104   -0.904786    0.581014
  H     -0.543365    1.575965    2.380727
  H     -1.725971    0.360499    2.914844
  H     -2.055865    1.334945    1.469430
  C      2.496940   -7.102675    2.453392
  C      2.031792   -5.928717    1.782644
  N      1.665100   -4.989076    1.245524
  H      3.110393   -7.693726    1.774080
  H      1.645704   -7.699026    2.780112
  H      3.091771   -6.817919    3.320669
  C      2.785462    0.078599   -1.522429
  C      2.562058    1.231447   -2.334367
  N      2.397912    2.158855   -2.988285
  H      2.633921    0.333653   -0.474579
  H      3.809534   -0.265605   -1.669755
  H      2.087364   -0.713995   -1.795735
  C     -4.132921   -3.850146   -0.090557
  C     -2.724393   -3.675624    0.036977
  N     -1.592394   -3.540714    0.134614
  H     -4.441240   -4.752549    0.435642
  H     -4.397340   -3.935452   -1.143478
  H     -4.649738   -2.989560    0.338798
  C     -1.359387   -1.653588   -3.991124
  C     -0.529761   -1.969181   -2.878169
  N      0.151997   -2.217612   -1.992590
  H     -2.148417   -0.971199   -3.671210
  H     -1.804569   -2.566886   -4.387742
  H     -0.764680   -1.174504   -4.767969
  C      2.312086    4.919451    3.996175
  C      1.634695    3.768657    3.493568
  N      1.095227    2.840591    3.092829
  H      2.974929    5.317348    3.225716
  H      2.900586    4.642217    4.869933
  H      1.585461    5.681310    4.275916
  C     -4.750675    1.630831    5.688880
  C     -3.741891    0.716525    5.263426
  N     -2.932856   -0.015346    4.913120
  H     -5.499365    1.103536    6.278603
  H     -5.224142    2.077670    4.812956
  H     -4.300038    2.415577    6.295314
  C     -5.202289    2.513898   -2.527379
  C     -4.288574    1.451096   -2.810070
  N     -3.555856    0.601386   -3.038284
  H     -4.703466    3.269332   -1.918868
  H     -6.062013    2.119037   -1.988107
  H     -5.535954    2.965547   -3.460950
  C      7.595613    1.486003   -2.781436
  C      6.763778    0.347705   -2.548127
  N      6.095621   -0.562606   -2.359303
  H      7.035855    2.393355   -2.556741
  H      7.908805    1.500851   -3.824872
  H      8.474563    1.430864   -2.139950
  C      4.187152    8.330536    0.148338
  C      4.275166    7.207938    1.021931
  N      4.344033    6.305663    1.726233
  H      3.914071    7.991498   -0.852431
  H      5.149874    8.838580    0.107519
  H      3.429180    9.021151    0.516040
  C     -1.021584   -2.650460    4.967495
  C     -0.506540   -2.904300    3.661118
  N     -0.089175   -3.106081    2.614922
  H     -1.656965   -1.763289    4.942952
  H     -0.199121   -2.484583    5.661893
  H     -1.611517   -3.502617    5.302293
  C     -5.975534    5.194572    1.484029
  C     -6.031023    4.030756    2.306597
  N     -6.075974    3.092121    2.963089
  H     -6.920708    5.314191    0.955754
  H     -5.164913    5.091176    0.760797
  H     -5.795844    6.071480    2.104958
  C      6.840814    4.067441    2.295300
  C      6.299511    2.747189    2.215195
  N      5.855453    1.693255    2.154540
  H      7.256885    4.231275    3.288641
  H      6.046900    4.793245    2.110292
  H      7.625391    4.191071    1.550154
  C      3.279754    6.443521   -5.286560
  C      3.349295    6.958538   -3.955014
  N      3.405054    7.370326   -2.887826
  H      4.049514    5.684756   -5.421506
  H      3.436332    7.252852   -5.998925
  H      2.300792    5.995853   -5.452282
  C     -0.460619   -6.277556   -3.554548
  C     -0.023122   -5.630972   -2.358659
  N      0.331315   -5.119346   -1.398692
  H      0.396092   -6.478950   -4.196281
  H     -1.161464   -5.630449   -4.084312
  H     -0.955032   -7.216224   -3.307252
  C     -1.058079    5.495016   -1.430990
  C     -2.398297    5.192388   -1.044509
  N     -3.474413    4.946422   -0.736687
  H     -0.884439    5.135672   -2.444549
  H     -0.361642    5.004039   -0.752252
  H     -0.902955    6.572853   -1.396350
  C     -4.243432   -4.652186   -7.367738
  C     -3.349371   -4.556433   -6.258011
  N     -2.632595   -4.477690   -5.368059
  H     -4.988489   -3.859608   -7.304811
  H     -4.742724   -5.620602   -7.352170
  H     -3.683169   -4.549322   -8.296580
  C      3.244700   -0.071839    3.079155
  C      2.799052   -1.099018    2.196258
  N      2.442697   -1.919196    1.481897
  H      2.482706    0.705789    3.145067
  H      4.168650    0.369496    2.699585
  H      3.427710   -0.486943    4.068881
  C      5.171195   -3.633147   -1.834217
  C      3.827896   -3.473377   -1.383023
  N      2.750501   -3.330316   -1.026594
  H      5.770662   -4.090973   -1.048833
  H      5.583430   -2.651196   -2.074058
  H      5.194096   -4.261383   -2.723375
  C     -7.597467    0.133341    2.279336
  C     -6.653202   -0.735414    1.650551
  N     -5.893031   -1.427735    1.146357
  H     -7.991614   -0.344355    3.175338
  H     -8.416719    0.341950    1.592305
  H     -7.104737    1.068274    2.551285

 Total Charge           Charge          ....    2
 Multiplicity           Mult            ....    1
 Number of Electrons    NEL             ....  458
 Basis Dimension        Dim             .... 1568

ORBITAL ENERGIES
----------------

  NO   OCC          E(Eh)            E(eV)
   0   2.0000    -144.884400     -3942.5050
   1   2.0000     -15.190031      -413.3418
   2   2.0000     -14.168926      -385.5561
   3   2.0000     -14.166562      -385.4918
   4   2.0000     -14.166207      -385.4821
   5   2.0000     -14.164909      -385.4468
   6   2.0000     -14.164142      -385.4259
   7   2.0000     -14.163772      -385.4158
   8   2.0000     -14.163327      -385.4037
   9   2.0000     -14.162308      -385.3760
  10   2.0000     -14.162078      -385.3697
  11   2.0000     -14.161969      -385.3668
  12   2.0000     -14.161647      -385.3580
  13   2.0000     -14.160581      -385.3290
  14   2.0000     -14.160507      -385.3270
  15   2.0000     -14.160352      -385.3228
  16   2.0000     -14.160147      -385.3172
  17   2.0000     -14.159805      -385.3079
  18   2.0000     -14.159721      -385.3056
  19   2.0000     -14.159643      -385.3035
  20   2.0000     -14.159538      -385.3006
  21   2.0000     -14.157905      -385.2562
  22   2.0000     -12.306445      -334.8754
  23   2.0000     -12.306334      -334.8724
  24   2.0000     -12.306205      -334.8689
  25   2.0000     -10.096980      -274.7528
  26   2.0000     -10.094627      -274.6888
  27   2.0000     -10.094365      -274.6816
  28   2.0000     -10.092792      -274.6388
  29   2.0000     -10.091943      -274.6157
  30   2.0000     -10.091286      -274.5978
  31   2.0000     -10.088670      -274.5267
  32   2.0000     -10.086693      -274.4729
  33   2.0000     -10.086445      -274.4661
  34   2.0000     -10.086311      -274.4625
  35   2.0000     -10.086250      -274.4608
  36   2.0000     -10.085216      -274.4327
  37   2.0000     -10.085065      -274.4286
  38   2.0000     -10.084661      -274.4176
  39   2.0000     -10.084618      -274.4164
  40   2.0000     -10.084251      -274.4064
  41   2.0000     -10.084124      -274.4030
  42   2.0000     -10.084094      -274.4022
  43   2.0000     -10.083582      -274.3882
  44   2.0000     -10.080754      -274.3113
  45   2.0000     -10.066959      -273.9359
  46   2.0000     -10.064021      -273.8559
  47   2.0000     -10.063962      -273.8543
  48   2.0000     -10.063869      -273.8518
  49   2.0000     -10.063327      -273.8370
  50   2.0000     -10.060924      -273.7717
  51   2.0000     -10.059982      -273.7460
  52   2.0000     -10.059694      -273.7382
  53   2.0000     -10.059392      -273.7300
  54   2.0000     -10.059205      -273.7249
  55   2.0000     -10.058870      -273.7158
  56   2.0000     -10.058806      -273.7140
  57   2.0000     -10.058531      -273.7065
  58   2.0000     -10.058166      -273.6966
  59   2.0000     -10.058032      -273.6930
  60   2.0000     -10.057270      -273.6722
  61   2.0000     -10.056975      -273.6642
  62   2.0000     -10.056136      -273.6414
  63   2.0000     -10.055959      -273.6365
  64   2.0000     -10.055001      -273.6105
  65   2.0000      -1.642671       -44.6994
  66   2.0000      -0.938226       -25.5304
  67   2.0000      -0.936863       -25.4933
  68   2.0000      -0.935666       -25.4608
  69   2.0000      -0.899915       -24.4879
  70   2.0000      -0.896383       -24.3918
  71   2.0000      -0.893430       -24.3115
  72   2.0000      -0.892922       -24.2977
  73   2.0000      -0.892226       -24.2787
  74   2.0000      -0.890604       -24.2346
  75   2.0000      -0.890205       -24.2237
  76   2.0000      -0.889570       -24.2064
  77   2.0000      -0.889522       -24.2051
  78   2.0000      -0.889127       -24.1944
  79   2.0000      -0.889118       -24.1941
  80   2.0000      -0.888252       -24.1706
  81   2.0000      -0.887796       -24.1581
  82   2.0000      -0.887759       -24.1572
  83   2.0000      -0.887598       -24.1528
  84   2.0000      -0.887294       -24.1445
  85   2.0000      -0.887178       -24.1414
  86   2.0000      -0.887025       -24.1372
  87   2.0000      -0.886710       -24.1286
  88   2.0000      -0.883793       -24.0492
  89   2.0000      -0.742493       -20.2043
  90   2.0000      -0.739718       -20.1288
  91   2.0000      -0.739485       -20.1224
  92   2.0000      -0.739376       -20.1195
  93   2.0000      -0.738726       -20.1018
  94   2.0000      -0.738286       -20.0898
  95   2.0000      -0.738241       -20.0886
  96   2.0000      -0.738046       -20.0833
  97   2.0000      -0.737460       -20.0673
  98   2.0000      -0.737322       -20.0635
  99   2.0000      -0.737129       -20.0583
 100   2.0000      -0.736956       -20.0536
 101   2.0000      -0.736386       -20.0381
 102   2.0000      -0.736079       -20.0297
 103   2.0000      -0.736005       -20.0277
 104   2.0000      -0.735562       -20.0157
 105   2.0000      -0.735508       -20.0142
 106   2.0000      -0.735138       -20.0041
 107   2.0000      -0.734535       -19.9877
 108   2.0000      -0.734059       -19.9748
 109   2.0000      -0.485027       -13.1983
 110   2.0000      -0.481187       -13.0938
 111   2.0000      -0.480088       -13.0638
 112   2.0000      -0.479740       -13.0544
 113   2.0000      -0.479384       -13.0447
 114   2.0000      -0.478933       -13.0324
 115   2.0000      -0.478141       -13.0109
 116   2.0000      -0.477518       -12.9939
 117   2.0000      -0.477367       -12.9898
 118   2.0000      -0.476478       -12.9656
 119   2.0000      -0.475682       -12.9440
 120   2.0000      -0.475071       -12.9273
 121   2.0000      -0.474651       -12.9159
 122   2.0000      -0.474305       -12.9065
 123   2.0000      -0.473334       -12.8801
 124   2.0000      -0.473050       -12.8723
 125   2.0000      -0.472298       -12.8519
 126   2.0000      -0.471836       -12.8393
 127   2.0000      -0.471399       -12.8274
 128   2.0000      -0.470543       -12.8041
 129   2.0000      -0.429789       -11.6951
 130   2.0000      -0.429536       -11.6883
 131   2.0000      -0.428966       -11.6728
 132   2.0000      -0.427986       -11.6461
 133   2.0000      -0.426420       -11.6035
 134   2.0000      -0.426275       -11.5995
 135   2.0000      -0.425819       -11.5871
 136   2.0000      -0.425785       -11.5862
 137   2.0000      -0.425547       -11.5797
 138   2.0000      -0.425506       -11.5786
 139   2.0000      -0.425238       -11.5713
 140   2.0000      -0.424785       -11.5590
 141   2.0000      -0.424300       -11.5458
 142   2.0000      -0.424066       -11.5394
 143   2.0000      -0.424047       -11.5389
 144   2.0000      -0.423789       -11.5319
 145   2.0000      -0.423528       -11.5248
 146   2.0000      -0.423123       -11.5138
 147   2.0000      -0.422806       -11.5051
 148   2.0000      -0.422669       -11.5014
 149   2.0000      -0.422665       -11.5013
 150   2.0000      -0.422610       -11.4998
 151   2.0000      -0.422147       -11.4872
 152   2.0000      -0.422109       -11.4862
 153   2.0000      -0.421830       -11.4786
 154   2.0000      -0.421478       -11.4690
 155   2.0000      -0.421371       -11.4661
 156   2.0000      -0.421346       -11.4654
 157   2.0000      -0.420964       -11.4550
 158   2.0000      -0.420416       -11.4401
 159   2.0000      -0.420124       -11.4322
 160   2.0000      -0.419946       -11.4273
 161   2.0000      -0.419393       -11.4123
 162   2.0000      -0.418194       -11.3796
 163   2.0000      -0.417681       -11.3657
 164   2.0000      -0.417452       -11.3595
 165   2.0000      -0.416383       -11.3304
 166   2.0000      -0.416220       -11.3259
 167   2.0000      -0.415915       -11.3176
 168   2.0000      -0.415273       -11.3001
 169   2.0000      -0.409470       -11.1423
 170   2.0000      -0.379509       -10.3270
 171   2.0000      -0.378624       -10.3029
 172   2.0000      -0.377216       -10.2646
 173   2.0000      -0.375597       -10.2205
 174   2.0000      -0.367141        -9.9904
 175   2.0000      -0.361572        -9.8389
 176   2.0000      -0.360199        -9.8015
 177   2.0000      -0.352561        -9.5937
 178   2.0000      -0.351373        -9.5613
 179   2.0000      -0.350819        -9.5463
 180   2.0000      -0.350404        -9.5350
 181   2.0000      -0.349438        -9.5087
 182   2.0000      -0.348540        -9.4842
 183   2.0000      -0.348187        -9.4746
 184   2.0000      -0.348051        -9.4710
 185   2.0000      -0.346850        -9.4383
 186   2.0000      -0.346371        -9.4252
 187   2.0000      -0.345341        -9.3972
 188   2.0000      -0.344643        -9.3782
 189   2.0000      -0.330461        -8.9923
 190   2.0000      -0.326565        -8.8863
 191   2.0000      -0.325856        -8.8670
 192   2.0000      -0.323347        -8.7987
 193   2.0000      -0.322014        -8.7625
 194   2.0000      -0.321293        -8.7428
 195   2.0000      -0.319676        -8.6988
 196   2.0000      -0.319220        -8.6864
 197   2.0000      -0.318776        -8.6743
 198   2.0000      -0.318530        -8.6676
 199   2.0000      -0.316886        -8.6229
 200   2.0000      -0.315917        -8.5965
 201   2.0000      -0.315245        -8.5782
 202   2.0000      -0.315072        -8.5735
 203   2.0000      -0.314675        -8.5627
 204   2.0000      -0.314453        -8.5567
 205   2.0000      -0.313681        -8.5357
 206   2.0000      -0.313536        -8.5318
 207   2.0000      -0.313418        -8.5285
 208   2.0000      -0.313293        -8.5251
 209   2.0000      -0.313157        -8.5214
 210   2.0000      -0.312523        -8.5042
 211   2.0000      -0.312216        -8.4958
 212   2.0000      -0.311185        -8.4678
 213   2.0000      -0.310264        -8.4427
 214   2.0000      -0.309628        -8.4254
 215   2.0000      -0.308884        -8.4051
 216   2.0000      -0.308558        -8.3963
 217   2.0000      -0.307498        -8.3674
 218   2.0000      -0.307103        -8.3567
 219   2.0000      -0.307057        -8.3554
 220   2.0000      -0.306912        -8.3515
 221   2.0000      -0.306040        -8.3278
 222   2.0000      -0.305202        -8.3050
 223   2.0000      -0.304927        -8.2975
 224   2.0000      -0.303385        -8.2555
 225   2.0000      -0.302835        -8.2406
 226   2.0000      -0.300576        -8.1791
 227   2.0000      -0.299396        -8.1470
 228   2.0000      -0.297981        -8.1085
 229   0.0000      -0.039874        -1.0850
 230   0.0000      -0.027604        -0.7512
 231   0.0000      -0.025356        -0.6900
 232   0.0000      -0.015470        -0.4210
 233   0.0000      -0.012634        -0.3438

MULLIKEN ATOMIC CHARGES
-----------------------
   0 Ca:    1.580900
   1 C :   -0.658958
   2 C :    0.355796
   3 N :   -0.326619
   4 H :    0.236513
   5 H :    0.219676
   6 H :    0.214313
   7 C :   -0.612797
   8 C :    0.323781
   9 N :   -0.345981
  10 H :    0.216543
  11 H :    0.217009
  12 H :    0.216846
  13 C :   -0.583380
  14 C :    0.303344
  15 N :   -0.376111
  16 H :    0.212436
  17 H :    0.219111
  18 H :    0.214876
  19 C :   -0.637003
  20 C :    0.337362
  21 N :   -0.340364
  22 H :    0.214003
  23 H :    0.213835
  24 H :    0.238448
  25 C :   -0.657322
  26 C :    0.357747
  27 N :   -0.332687
  28 H :    0.236839
  29 H :    0.220294
  30 H :    0.215284
  31 C :   -0.590742
  32 C :    0.334067
  33 N :   -0.382685
  34 H :    0.223771
  35 H :    0.212378
  36 H :    0.211987
  37 C :   -0.592882
  38 C :    0.339858
  39 N :   -0.385559
  40 H :    0.212215
  41 H :    0.225803
  42 H :    0.212365
  43 C :   -0.577250
  44 C :    0.310265
  45 N :   -0.367510
  46 H :    0.217409
  47 H :    0.212124
  48 H :    0.212820
  49 C :   -0.575088
  50 C :    0.335920
  51 N :   -0.382485
  52 H :    0.213571
  53 H :    0.213510
  54 H :    0.213576
  55 C :   -0.594908
  56 C :    0.335677
  57 N :   -0.390012
  58 H :    0.233306
  59 H :    0.210955
  60 H :    0.210599
  61 C :   -0.631728
  62 C :    0.353611
  63 N :   -0.325156
  64 H :    0.232848
  65 H :    0.211549
  66 H :    0.211899
  67 C :   -0.592371
  68 C :    0.337839
  69 N :   -0.387821
  70 H :    0.212238
  71 H :    0.226523
  72 H :    0.211576
  73 C :   -0.584888
  74 C :    0.319963
  75 N :   -0.375075
  76 H :    0.212094
  77 H :    0.220935
  78 H :    0.211711
  79 C :   -0.570541
  80 C :    0.315138
  81 N :   -0.369396
  82 H :    0.212743
  83 H :    0.212947
  84 H :    0.212802
  85 C :   -0.618676
  86 C :    0.347746
  87 N :   -0.319086
  88 H :    0.213664
  89 H :    0.224645
  90 H :    0.214105
  91 C :   -0.578584
  92 C :    0.341927
  93 N :   -0.387203
  94 H :    0.213727
  95 H :    0.213936
  96 H :    0.213671
  97 C :   -0.577861
  98 C :    0.342395
  99 N :   -0.384645
 100 H :    0.213208
 101 H :    0.213537
 102 H :    0.213558
 103 C :   -0.632622
 104 C :    0.346968
 105 N :   -0.341744
 106 H :    0.216597
 107 H :    0.229927
 108 H :    0.213982
 109 C :   -0.647884
 110 C :    0.346440
 111 N :   -0.331560
 112 H :    0.214608
 113 H :    0.236996
 114 H :    0.214343
 115 C :   -0.589344
 116 C :    0.320221
 117 N :   -0.369938
 118 H :    0.212366
 119 H :    0.212648
 120 H :    0.221699
Sum of atomic charges:    2.0000000

LOEWDIN ATOMIC CHARGES
----------------------
   0 Ca:    0.527692
   1 C :   -0.356176
   2 C :    0.247028
   3 N :   -0.346539
   4 H :    0.220810
   5 H :    0.213495
   6 H :    0.203121
   7 C :   -0.340361
   8 C :    0.252468
   9 N :   -0.346708
  10 H :    0.204563
  11 H :    0.204834
  12 H :    0.204720
  13 C :   -0.351317
  14 C :    0.153680
  15 N :   -0.405016
  16 H :    0.205346
  17 H :    0.210113
  18 H :    0.216275
  19 C :   -0.353150
  20 C :    0.251287
  21 N :   -0.347146
  22 H :    0.203755
  23 H :    0.203146
  24 H :    0.222063
  25 C :   -0.357759
  26 C :    0.247847
  27 N :   -0.359682
  28 H :    0.219505
  29 H :    0.214419
  30 H :    0.204653
  31 C :   -0.358039
  32 C :    0.166865
  33 N :   -0.422275
  34 H :    0.214668
  35 H :    0.201316
  36 H :    0.201342
  37 C :   -0.358261
  38 C :    0.170420
  39 N :   -0.428933
  40 H :    0.201262
  41 H :    0.214232
  42 H :    0.201500
  43 C :   -0.355550
  44 C :    0.162359
  45 N :   -0.409678
  46 H :    0.209389
  47 H :    0.201017
  48 H :    0.201529
  49 C :   -0.350159
  50 C :    0.169922
  51 N :   -0.421776
  52 H :    0.202075
  53 H :    0.202044
  54 H :    0.202099
  55 C :   -0.361986
  56 C :    0.170531
  57 N :   -0.433634
  58 H :    0.217751
  59 H :    0.200750
  60 H :    0.200615
  61 C :   -0.355377
  62 C :    0.227071
  63 N :   -0.320034
  64 H :    0.219162
  65 H :    0.201252
  66 H :    0.201462
  67 C :   -0.359194
  68 C :    0.170018
  69 N :   -0.429425
  70 H :    0.201209
  71 H :    0.214643
  72 H :    0.201295
  73 C :   -0.357305
  74 C :    0.163157
  75 N :   -0.415843
  76 H :    0.200951
  77 H :    0.212276
  78 H :    0.200674
  79 C :   -0.351396
  80 C :    0.163301
  81 N :   -0.409964
  82 H :    0.201477
  83 H :    0.201607
  84 H :    0.201438
  85 C :   -0.351223
  86 C :    0.229575
  87 N :   -0.322695
  88 H :    0.202493
  89 H :    0.215379
  90 H :    0.202913
  91 C :   -0.351100
  92 C :    0.168922
  93 N :   -0.422727
  94 H :    0.202161
  95 H :    0.202078
  96 H :    0.202200
  97 C :   -0.350061
  98 C :    0.171205
  99 N :   -0.426583
 100 H :    0.201915
 101 H :    0.202061
 102 H :    0.201996
 103 C :   -0.354226
 104 C :    0.237272
 105 N :   -0.335219
 106 H :    0.208808
 107 H :    0.219935
 108 H :    0.203185
 109 C :   -0.351022
 110 C :    0.251174
 111 N :   -0.355485
 112 H :    0.203330
 113 H :    0.221054
 114 H :    0.203095
 115 C :   -0.357217
 116 C :    0.163763
 117 N :   -0.412521
 118 H :    0.201029
 119 H :    0.201316
 120 H :    0.212408

  Mayer bond orders larger than 0.100000
B(  0-Ca, 87-N ) :   0.1124 B(  1-C ,  2-C ) :   0.9782 B(  1-C ,  4-H ) :   0.9154
B(  1-C ,  5-H ) :   0.9306 B(  1-C ,  6-H ) :   0.9486 B(  2-C ,  3-N ) :   2.6113
B(  7-C ,  8-C ) :   0.9871 B(  7-C , 10-H ) :   0.9413 B(  7-C , 11-H ) :   0.9404
B(  7-C , 12-H ) :   0.9426 B(  8-C ,  9-N ) :   2.6402 B( 13-C , 14-C ) :   0.9986
B( 13-C , 16-H ) :   0.9328 B( 13-C , 17-H ) :   0.9201 B( 13-C , 18-H ) :   0.9235
B( 14-C , 15-N ) :   2.8444 B( 19-C , 20-C ) :   0.9877 B( 19-C , 22-H ) :   0.9445
B( 19-C , 23-H ) :   0.9445 B( 19-C , 24-H ) :   0.9194 B( 20-C , 21-N ) :   2.5895
B( 25-C , 26-C ) :   0.9796 B( 25-C , 28-H ) :   0.9225 B( 25-C , 29-H ) :   0.9273
B( 25-C , 30-H ) :   0.9465 B( 26-C , 27-N ) :   2.5908 B( 31-C , 32-C ) :   0.9673
B( 31-C , 34-H ) :   0.9211 B( 31-C , 35-H ) :   0.9422 B( 31-C , 36-H ) :   0.9415
B( 32-C , 33-N ) :   2.7514 B( 37-C , 38-C ) :   0.9660 B( 37-C , 40-H ) :   0.9413
B( 37-C , 41-H ) :   0.9215 B( 37-C , 42-H ) :   0.9427 B( 38-C , 39-N ) :   2.7325
B( 43-C , 44-C ) :   0.9683 B( 43-C , 46-H ) :   0.9272 B( 43-C , 47-H ) :   0.9410
B( 43-C , 48-H ) :   0.9413 B( 44-C , 45-N ) :   2.7804 B( 49-C , 50-C ) :   0.9705
B( 49-C , 52-H ) :   0.9397 B( 49-C , 53-H ) :   0.9394 B( 49-C , 54-H ) :   0.9400
B( 50-C , 51-N ) :   2.7424 B( 55-C , 56-C ) :   0.9714 B( 55-C , 58-H ) :   0.9183
B( 55-C , 59-H ) :   0.9438 B( 55-C , 60-H ) :   0.9430 B( 56-C , 57-N ) :   2.7439
B( 61-C , 62-C ) :   0.9694 B( 61-C , 64-H ) :   0.9184 B( 61-C , 65-H ) :   0.9465
B( 61-C , 66-H ) :   0.9476 B( 62-C , 63-N ) :   2.5890 B( 67-C , 68-C ) :   0.9676
B( 67-C , 70-H ) :   0.9426 B( 67-C , 71-H ) :   0.9220 B( 67-C , 72-H ) :   0.9418
B( 68-C , 69-N ) :   2.7444 B( 73-C , 74-C ) :   0.9692 B( 73-C , 76-H ) :   0.9425
B( 73-C , 77-H ) :   0.9232 B( 73-C , 78-H ) :   0.9420 B( 74-C , 75-N ) :   2.7936
B( 79-C , 80-C ) :   0.9697 B( 79-C , 82-H ) :   0.9399 B( 79-C , 83-H ) :   0.9391
B( 79-C , 84-H ) :   0.9399 B( 80-C , 81-N ) :   2.7846 B( 85-C , 86-C ) :   0.9709
B( 85-C , 88-H ) :   0.9446 B( 85-C , 89-H ) :   0.9236 B( 85-C , 90-H ) :   0.9451
B( 86-C , 87-N ) :   2.6370 B( 91-C , 92-C ) :   0.9741 B( 91-C , 94-H ) :   0.9395
B( 91-C , 95-H ) :   0.9385 B( 91-C , 96-H ) :   0.9397 B( 92-C , 93-N ) :   2.7483
B( 97-C , 98-C ) :   0.9693 B( 97-C ,100-H ) :   0.9403 B( 97-C ,101-H ) :   0.9397
B( 97-C ,102-H ) :   0.9408 B( 98-C , 99-N ) :   2.7436 B(103-C ,104-C ) :   0.9771
B(103-C ,106-H ) :   0.9321 B(103-C ,107-H ) :   0.9206 B(103-C ,108-H ) :   0.9474
B(104-C ,105-N ) :   2.6540 B(109-C ,110-C ) :   0.9798 B(109-C ,112-H ) :   0.9457
B(109-C ,113-H ) :   0.9121 B(109-C ,114-H ) :   0.9494 B(110-C ,111-N ) :   2.6189
B(115-C ,116-C ) :   0.9608 B(115-C ,118-H ) :   0.9409 B(115-C ,119-H ) :   0.9429
B(115-C ,120-H ) :   0.9225 B(116-C ,117-N ) :   2.7727

Dispersion correction           -0.044261810
FINAL SINGLE POINT ENERGY     -3332.040932878264

DIPOLE MOMENT
-------------
                                X             Y             Z
Electronic contribution:      6.82949     -33.32914       3.14822
Nuclear contribution   :     -7.60373      33.67113      -4.50966
                        -----------------------------------------
Total Dipole Moment    :     -0.77424       0.34199      -1.36144
                        -----------------------------------------
Magnitude (a.u.)       :      1.60310
Magnitude (Debye)      :      4.07475

Rotational constants in cm-1:     0.000901     0.000776     0.000643
Rotational constants in MHz :    27.023805    23.267770    19.276960

                             ****ORCA TERMINATED NORMALLY****
TOTAL RUN TIME: 0 days 0 hours 10 minutes 11 seconds 656 msec
