                         Program Version 5.0.4 -  RELEASE  -
|  1> ! r2SCAN-3c ENERGY TightSCF defgrid3 def2/J
|  2> %maxcore 8000
|  3> %PAL NPROCS 8 END
|  4> %CPCM SMD TRUE
|  5>       SMDSOLVENT "MeCN"
|  6> END
|  7> *xyzfile 2 1  xtbopt.xyz
|  8>
|  9>                          ****END OF INPUT****

CARTESIAN COORDINATES (ANGSTROEM)
---------------------------------
  Ca     1.091068    0.403321   -0.507581
  C      3.802090    0.646102   -4.689748
  C      3.055189    0.590404   -3.472539
  N      2.459454    0.545988   -2.497594
  H      4.689471    1.262607   -4.549425
  H      3.186145    1.077511   -5.478241
  H      4.105430   -0.359043   -4.981073
  C     -0.878658   -2.897385    2.652825
  C     -0.285404   -1.930812    1.789508
  N      0.193496   -1.155322    1.097317
  H     -1.052020   -2.458817    3.634667
  H     -0.215505   -3.755567    2.754760
  H     -1.831484   -3.229942    2.235733
  C      4.858030   -2.786311    0.472217
  C      3.766550   -1.907691    0.189792
  N      2.893757   -1.204452   -0.036752
  H      4.655936   -3.771405    0.052857
  H      4.988050   -2.874685    1.550498
  H      5.771933   -2.389057    0.031635
  C     -6.698439    4.323438    2.451880
  C     -5.526489    3.642396    2.005046
  N     -4.585682    3.095287    1.646851
  H     -7.301624    4.615871    1.592812
  H     -6.413216    5.213536    3.012028
  H     -7.280900    3.663980    3.094745
  C     -1.546400    2.760193    2.992195
  C     -0.598661    2.187602    2.091808
  N      0.165037    1.732733    1.371550
  H     -1.215921    3.753442    3.294038
  H     -1.642208    2.129579    3.875169
  H     -2.517360    2.838714    2.499426
  C     -0.551111   -3.615576   -2.959763
  C      0.010900   -2.444095   -2.364497
  N      0.463754   -1.506782   -1.891436
  H      0.236546   -4.341804   -3.158202
  H     -1.041103   -3.352250   -3.896722
  H     -1.282418   -4.053962   -2.281551
  C     -3.837152    0.888255   -0.729158
  C     -2.425678    0.721454   -0.849958
  N     -1.294083    0.586981   -0.951535
  H     -4.251334    1.226183   -1.678394
  H     -4.052859    1.629789    0.042562
  H     -4.295081   -0.060346   -0.451836
  C      4.708522    3.230714    1.365867
  C      3.714887    2.359619    0.821659
  N      2.921172    1.662050    0.385030
  H      5.358036    2.673064    2.040003
  H      4.225737    4.036198    1.918353
  H      5.306605    3.655144    0.560041
  C     -5.824862   -5.605605    1.668652
  C     -4.660847   -4.777020    1.630799
  N     -3.728435   -4.113138    1.596666
  H     -6.430595   -5.345148    2.536128
  H     -5.525577   -6.650925    1.739189
  H     -6.410024   -5.457612    0.761535
  C     -0.027100    4.967979   -2.294085
  C      0.376741    3.671165   -1.849111
  N      0.700950    2.634160   -1.492465
  H      0.848351    5.605298   -2.415044
  H     -0.697932    5.413475   -1.560241
  H     -0.544039    4.883444   -3.249531

 Total Charge           Charge          ....    2
 Multiplicity           Mult            ....    1
 Number of Electrons    NEL             ....  238
 Basis Dimension        Dim             ....  798

ORBITAL ENERGIES
----------------

  NO   OCC          E(Eh)            E(eV)
   0   2.0000    -144.887794     -3942.5973
   1   2.0000     -15.193233      -413.4289
   2   2.0000     -14.169789      -385.5796
   3   2.0000     -14.169676      -385.5765
   4   2.0000     -14.169023      -385.5587
   5   2.0000     -14.168751      -385.5513
   6   2.0000     -14.168658      -385.5488
   7   2.0000     -14.167783      -385.5250
   8   2.0000     -14.167138      -385.5074
   9   2.0000     -14.166120      -385.4797
  10   2.0000     -14.163233      -385.4012
  11   2.0000     -14.161371      -385.3505
  12   2.0000     -12.309635      -334.9622
  13   2.0000     -12.309541      -334.9596
  14   2.0000     -12.309476      -334.9579
  15   2.0000     -10.096972      -274.7526
  16   2.0000     -10.096322      -274.7349
  17   2.0000     -10.095098      -274.7016
  18   2.0000     -10.094908      -274.6964
  19   2.0000     -10.094748      -274.6921
  20   2.0000     -10.094475      -274.6846
  21   2.0000     -10.093779      -274.6657
  22   2.0000     -10.092241      -274.6238
  23   2.0000     -10.087762      -274.5020
  24   2.0000     -10.085569      -274.4423
  25   2.0000     -10.067376      -273.9472
  26   2.0000     -10.067271      -273.9444
  27   2.0000     -10.067010      -273.9373
  28   2.0000     -10.066917      -273.9347
  29   2.0000     -10.066871      -273.9335
  30   2.0000     -10.064571      -273.8709
  31   2.0000     -10.064081      -273.8576
  32   2.0000     -10.061722      -273.7934
  33   2.0000     -10.061721      -273.7933
  34   2.0000     -10.059949      -273.7451
  35   2.0000      -1.644938       -44.7610
  36   2.0000      -0.938782       -25.5456
  37   2.0000      -0.938411       -25.5355
  38   2.0000      -0.937627       -25.5141
  39   2.0000      -0.901436       -24.5293
  40   2.0000      -0.897543       -24.4234
  41   2.0000      -0.896601       -24.3978
  42   2.0000      -0.895605       -24.3707
  43   2.0000      -0.895230       -24.3605
  44   2.0000      -0.894237       -24.3334
  45   2.0000      -0.893903       -24.3243
  46   2.0000      -0.892944       -24.2982
  47   2.0000      -0.890663       -24.2362
  48   2.0000      -0.888716       -24.1832
  49   2.0000      -0.743142       -20.2219
  50   2.0000      -0.742813       -20.2130
  51   2.0000      -0.742431       -20.2026
  52   2.0000      -0.742221       -20.1968
  53   2.0000      -0.742167       -20.1954
  54   2.0000      -0.740906       -20.1611
  55   2.0000      -0.739848       -20.1323
  56   2.0000      -0.739522       -20.1234
  57   2.0000      -0.739038       -20.1102
  58   2.0000      -0.738314       -20.0906
  59   2.0000      -0.487229       -13.2582
  60   2.0000      -0.482163       -13.1203
  61   2.0000      -0.482049       -13.1172
  62   2.0000      -0.481756       -13.1092
  63   2.0000      -0.481137       -13.0924
  64   2.0000      -0.480581       -13.0773
  65   2.0000      -0.480488       -13.0748
  66   2.0000      -0.478574       -13.0227
  67   2.0000      -0.476324       -12.9614
  68   2.0000      -0.475335       -12.9345
  69   2.0000      -0.430818       -11.7231
  70   2.0000      -0.428094       -11.6490
  71   2.0000      -0.427822       -11.6416
  72   2.0000      -0.427416       -11.6306
  73   2.0000      -0.427069       -11.6211
  74   2.0000      -0.426829       -11.6146
  75   2.0000      -0.426469       -11.6048
  76   2.0000      -0.426145       -11.5960
  77   2.0000      -0.425762       -11.5856
  78   2.0000      -0.425510       -11.5787
  79   2.0000      -0.425317       -11.5735
  80   2.0000      -0.424758       -11.5583
  81   2.0000      -0.424647       -11.5552
  82   2.0000      -0.424566       -11.5530
  83   2.0000      -0.423517       -11.5245
  84   2.0000      -0.423162       -11.5148
  85   2.0000      -0.422564       -11.4985
  86   2.0000      -0.422116       -11.4864
  87   2.0000      -0.421971       -11.4824
  88   2.0000      -0.418371       -11.3845
  89   2.0000      -0.415197       -11.2981
  90   2.0000      -0.381933       -10.3929
  91   2.0000      -0.381347       -10.3770
  92   2.0000      -0.379426       -10.3247
  93   2.0000      -0.375408       -10.2154
  94   2.0000      -0.371580       -10.1112
  95   2.0000      -0.362768        -9.8714
  96   2.0000      -0.361369        -9.8334
  97   2.0000      -0.352609        -9.5950
  98   2.0000      -0.349786        -9.5182
  99   2.0000      -0.334744        -9.1088
 100   2.0000      -0.331557        -9.0221
 101   2.0000      -0.330775        -9.0008
 102   2.0000      -0.326560        -8.8861
 103   2.0000      -0.325876        -8.8675
 104   2.0000      -0.323545        -8.8041
 105   2.0000      -0.323207        -8.7949
 106   2.0000      -0.319264        -8.6876
 107   2.0000      -0.316394        -8.6095
 108   2.0000      -0.315813        -8.5937
 109   2.0000      -0.314717        -8.5639
 110   2.0000      -0.314356        -8.5541
 111   2.0000      -0.314009        -8.5446
 112   2.0000      -0.313413        -8.5284
 113   2.0000      -0.313028        -8.5179
 114   2.0000      -0.311706        -8.4820
 115   2.0000      -0.310219        -8.4415
 116   2.0000      -0.307068        -8.3557
 117   2.0000      -0.306195        -8.3320
 118   2.0000      -0.302253        -8.2247
 119   0.0000      -0.041288        -1.1235
 120   0.0000      -0.030008        -0.8166
 121   0.0000      -0.027575        -0.7503
 122   0.0000      -0.014585        -0.3969
 123   0.0000      -0.012674        -0.3449

MULLIKEN ATOMIC CHARGES
-----------------------
   0 Ca:    1.658107
   1 C :   -0.610282
   2 C :    0.330532
   3 N :   -0.348320
   4 H :    0.216367
   5 H :    0.216376
   6 H :    0.216171
   7 C :   -0.633931
   8 C :    0.340393
   9 N :   -0.337806
  10 H :    0.214053
  11 H :    0.214292
  12 H :    0.232598
  13 C :   -0.610158
  14 C :    0.342418
  15 N :   -0.340774
  16 H :    0.215730
  17 H :    0.215827
  18 H :    0.216004
  19 C :   -0.578655
  20 C :    0.345836
  21 N :   -0.386433
  22 H :    0.213658
  23 H :    0.213762
  24 H :    0.213889
  25 C :   -0.625007
  26 C :    0.348767
  27 N :   -0.326059
  28 H :    0.215013
  29 H :    0.214925
  30 H :    0.223604
  31 C :   -0.610481
  32 C :    0.339534
  33 N :   -0.332814
  34 H :    0.216178
  35 H :    0.216441
  36 H :    0.215573
  37 C :   -0.631199
  38 C :    0.351896
  39 N :   -0.327663
  40 H :    0.215444
  41 H :    0.225508
  42 H :    0.215050
  43 C :   -0.612746
  44 C :    0.330531
  45 N :   -0.342611
  46 H :    0.216697
  47 H :    0.216130
  48 H :    0.216750
  49 C :   -0.569822
  50 C :    0.314526
  51 N :   -0.368776
  52 H :    0.212879
  53 H :    0.212849
  54 H :    0.213169
  55 C :   -0.609159
  56 C :    0.345250
  57 N :   -0.337228
  58 H :    0.215760
  59 H :    0.215424
  60 H :    0.216011
Sum of atomic charges:    2.0000000

LOEWDIN ATOMIC CHARGES
----------------------
   0 Ca:    0.544099
   1 C :   -0.341538
   2 C :    0.246001
   3 N :   -0.336629
   4 H :    0.204430
   5 H :    0.204408
   6 H :    0.204140
   7 C :   -0.352356
   8 C :    0.247977
   9 N :   -0.341756
  10 H :    0.203311
  11 H :    0.203423
  12 H :    0.220247
  13 C :   -0.342259
  14 C :    0.241925
  15 N :   -0.330565
  16 H :    0.203895
  17 H :    0.204042
  18 H :    0.203876
  19 C :   -0.349879
  20 C :    0.173842
  21 N :   -0.430535
  22 H :    0.202254
  23 H :    0.202272
  24 H :    0.202275
  25 C :   -0.348719
  26 C :    0.239129
  27 N :   -0.331618
  28 H :    0.203585
  29 H :    0.203307
  30 H :    0.216393
  31 C :   -0.341843
  32 C :    0.243217
  33 N :   -0.333984
  34 H :    0.204162
  35 H :    0.204388
  36 H :    0.203883
  37 C :   -0.348548
  38 C :    0.245013
  39 N :   -0.337409
  40 H :    0.204096
  41 H :    0.217185
  42 H :    0.203538
  43 C :   -0.341055
  44 C :    0.248997
  45 N :   -0.340518
  46 H :    0.204610
  47 H :    0.204221
  48 H :    0.204697
  49 C :   -0.351180
  50 C :    0.164111
  51 N :   -0.411587
  52 H :    0.201539
  53 H :    0.201548
  54 H :    0.201647
  55 C :   -0.342295
  56 C :    0.240303
  57 N :   -0.329391
  58 H :    0.203936
  59 H :    0.203695
  60 H :    0.204049

  Mayer bond orders larger than 0.100000
B(  1-C ,  2-C ) :   0.9814 B(  1-C ,  4-H ) :   0.9427 B(  1-C ,  5-H ) :   0.9406
B(  1-C ,  6-H ) :   0.9418 B(  2-C ,  3-N ) :   2.6336 B(  7-C ,  8-C ) :   0.9848
B(  7-C , 10-H ) :   0.9438 B(  7-C , 11-H ) :   0.9447 B(  7-C , 12-H ) :   0.9221
B(  8-C ,  9-N ) :   2.5985 B( 13-C , 14-C ) :   0.9767 B( 13-C , 16-H ) :   0.9430
B( 13-C , 17-H ) :   0.9411 B( 13-C , 18-H ) :   0.9426 B( 14-C , 15-N ) :   2.6113
B( 19-C , 20-C ) :   0.9694 B( 19-C , 22-H ) :   0.9397 B( 19-C , 23-H ) :   0.9399
B( 19-C , 24-H ) :   0.9406 B( 20-C , 21-N ) :   2.7378 B( 25-C , 26-C ) :   0.9723
B( 25-C , 28-H ) :   0.9449 B( 25-C , 29-H ) :   0.9440 B( 25-C , 30-H ) :   0.9234
B( 26-C , 27-N ) :   2.6284 B( 31-C , 32-C ) :   0.9766 B( 31-C , 34-H ) :   0.9429
B( 31-C , 35-H ) :   0.9412 B( 31-C , 36-H ) :   0.9415 B( 32-C , 33-N ) :   2.6229
B( 37-C , 38-C ) :   0.9764 B( 37-C , 40-H ) :   0.9445 B( 37-C , 41-H ) :   0.9221
B( 37-C , 42-H ) :   0.9451 B( 38-C , 39-N ) :   2.6053 B( 43-C , 44-C ) :   0.9822
B( 43-C , 46-H ) :   0.9407 B( 43-C , 47-H ) :   0.9408 B( 43-C , 48-H ) :   0.9438
B( 44-C , 45-N ) :   2.6341 B( 49-C , 50-C ) :   0.9698 B( 49-C , 52-H ) :   0.9397
B( 49-C , 53-H ) :   0.9398 B( 49-C , 54-H ) :   0.9393 B( 50-C , 51-N ) :   2.7948
B( 55-C , 56-C ) :   0.9751 B( 55-C , 58-H ) :   0.9427 B( 55-C , 59-H ) :   0.9424
B( 55-C , 60-H ) :   0.9412 B( 56-C , 57-N ) :   2.6098

Dispersion correction           -0.021625755
FINAL SINGLE POINT ENERGY     -2004.776334623147

DIPOLE MOMENT
-------------
                                X             Y             Z
Electronic contribution:     13.89219       1.52770      -4.66981
Nuclear contribution   :    -14.56534      -1.14755       4.35665
                        -----------------------------------------
Total Dipole Moment    :     -0.67314       0.38015      -0.31316
                        -----------------------------------------
Magnitude (a.u.)       :      0.83409
Magnitude (Debye)      :      2.12008

Rotational constants in cm-1:     0.003599     0.002703     0.002028
Rotational constants in MHz :   107.907527    81.039252    60.790596

                             ****ORCA TERMINATED NORMALLY****
TOTAL RUN TIME: 0 days 0 hours 2 minutes 4 seconds 831 msec
