                         Program Version 5.0.4 -  RELEASE  -
|  1> ! r2SCAN-3c ENERGY TightSCF defgrid3 def2/J
|  2> %maxcore 8000
|  3> %PAL NPROCS 8 END
|  4> %CPCM SMD TRUE
|  5>       SMDSOLVENT "MeCN"
|  6> END
|  7> *xyzfile 1 1  xtbopt.xyz
|  8>
|  9>                          ****END OF INPUT****

CARTESIAN COORDINATES (ANGSTROEM)
---------------------------------
  K     -0.026415   -0.404437    0.403372
  C      1.786624    1.364260   -2.014273
  C      0.938043    0.775845   -3.000268
  N      0.269736    0.316076   -3.809171
  H      2.309238    0.580116   -1.469182
  H      1.179177    1.941806   -1.320034
  H      2.509605    2.017543   -2.501846
  C      8.567038   -0.050129   -2.017442
  C      7.391897   -0.844419   -1.836171
  N      6.449295   -1.477999   -1.691435
  H      8.348153    0.986245   -1.762638
  H      8.887532   -0.108827   -3.057059
  H      9.361456   -0.423268   -1.372000
  C      2.062616    2.898452    3.724285
  C      1.756697    2.062363    2.609377
  N      1.510941    1.381901    1.722713
  H      3.129807    2.857925    3.936631
  H      1.502597    2.547709    4.592642
  H      1.776539    3.925290    3.502039
  C     -3.769621    1.710752   -0.339752
  C     -2.350122    1.762526   -0.422536
  N     -1.207684    1.801316   -0.484592
  H     -4.189510    1.544491   -1.331529
  H     -4.151071    2.646889    0.063646
  H     -4.046490    0.888861    0.319670
  C      3.820301   -3.397183   -1.542423
  C      2.788105   -2.577872   -1.000426
  N      1.965018   -1.908518   -0.569479
  H      4.742144   -2.815727   -1.602324
  H      3.537408   -3.728707   -2.540352
  H      3.978961   -4.262858   -0.901554
  C     -2.693661   -0.982477   -3.608469
  C     -2.176325   -1.236908   -2.308006
  N     -1.756217   -1.440007   -1.262430
  H     -3.499093   -0.250264   -3.545163
  H     -3.068035   -1.904796   -4.048794
  H     -1.886744   -0.579375   -4.219922
  C     -2.219179   -3.036648    1.626875
  C     -2.820962   -1.751405    1.776602
  N     -3.322681   -0.729674    1.905990
  H     -2.055375   -3.231022    0.568507
  H     -2.875226   -3.800023    2.044212
  H     -1.262894   -3.046527    2.146929
  C     -2.248705    1.427877    6.834453
  C     -0.898126    1.446714    6.373002
  N      0.186077    1.461199    6.002909
  H     -2.896174    1.061552    6.038364
  H     -2.551679    2.436086    7.115472
  H     -2.329047    0.771213    7.700206
  C     -6.228800    2.728653   -5.341877
  C     -5.533532    2.042633   -4.299514
  N     -4.976465    1.491995   -3.463769
  H     -7.016192    2.087549   -5.737055
  H     -5.529949    2.980135   -6.139074
  H     -6.670169    3.642103   -4.944542
  C      2.127638   -0.975311    4.839453
  C      1.256680   -1.316719    3.762738
  N      0.547589   -1.590033    2.907208
  H      2.234174   -1.825848    5.511311
  H      1.698483   -0.133598    5.384389
  H      3.103395   -0.699642    4.444048

 Total Charge           Charge          ....    1
 Multiplicity           Mult            ....    1
 Number of Electrons    NEL             ....  238
 Basis Dimension        Dim             ....  788

ORBITAL ENERGIES
----------------

  NO   OCC          E(Eh)            E(eV)
   0   2.0000    -129.365730     -3520.2205
   1   2.0000     -14.161539      -385.3551
   2   2.0000     -14.160968      -385.3395
   3   2.0000     -14.160440      -385.3252
   4   2.0000     -14.160387      -385.3237
   5   2.0000     -14.160219      -385.3191
   6   2.0000     -14.159991      -385.3129
   7   2.0000     -14.159431      -385.2977
   8   2.0000     -14.159323      -385.2948
   9   2.0000     -14.159181      -385.2909
  10   2.0000     -14.158419      -385.2702
  11   2.0000     -13.035877      -354.7242
  12   2.0000     -10.361216      -281.9430
  13   2.0000     -10.361148      -281.9412
  14   2.0000     -10.360989      -281.9368
  15   2.0000     -10.087342      -274.4905
  16   2.0000     -10.087331      -274.4902
  17   2.0000     -10.086404      -274.4650
  18   2.0000     -10.086345      -274.4634
  19   2.0000     -10.085566      -274.4422
  20   2.0000     -10.085313      -274.4353
  21   2.0000     -10.084886      -274.4237
  22   2.0000     -10.084355      -274.4093
  23   2.0000     -10.083696      -274.3913
  24   2.0000     -10.082600      -274.3615
  25   2.0000     -10.062841      -273.8238
  26   2.0000     -10.062673      -273.8193
  27   2.0000     -10.062485      -273.8141
  28   2.0000     -10.061954      -273.7997
  29   2.0000     -10.059612      -273.7359
  30   2.0000     -10.058952      -273.7180
  31   2.0000     -10.057515      -273.6789
  32   2.0000     -10.055520      -273.6246
  33   2.0000     -10.054659      -273.6012
  34   2.0000     -10.054243      -273.5899
  35   2.0000      -1.274349       -34.6768
  36   2.0000      -0.892577       -24.2883
  37   2.0000      -0.890340       -24.2274
  38   2.0000      -0.889867       -24.2145
  39   2.0000      -0.889352       -24.2005
  40   2.0000      -0.888463       -24.1763
  41   2.0000      -0.888235       -24.1701
  42   2.0000      -0.887955       -24.1625
  43   2.0000      -0.887776       -24.1576
  44   2.0000      -0.886842       -24.1322
  45   2.0000      -0.885969       -24.1084
  46   2.0000      -0.739359       -20.1190
  47   2.0000      -0.738900       -20.1065
  48   2.0000      -0.738356       -20.0917
  49   2.0000      -0.737867       -20.0784
  50   2.0000      -0.737261       -20.0619
  51   2.0000      -0.736779       -20.0488
  52   2.0000      -0.735883       -20.0244
  53   2.0000      -0.735397       -20.0112
  54   2.0000      -0.735246       -20.0071
  55   2.0000      -0.735100       -20.0031
  56   2.0000      -0.655855       -17.8467
  57   2.0000      -0.653125       -17.7724
  58   2.0000      -0.652704       -17.7610
  59   2.0000      -0.477851       -13.0030
  60   2.0000      -0.477133       -12.9835
  61   2.0000      -0.476488       -12.9659
  62   2.0000      -0.475508       -12.9392
  63   2.0000      -0.474854       -12.9214
  64   2.0000      -0.473084       -12.8733
  65   2.0000      -0.472332       -12.8528
  66   2.0000      -0.472152       -12.8479
  67   2.0000      -0.471610       -12.8332
  68   2.0000      -0.470936       -12.8148
  69   2.0000      -0.429772       -11.6947
  70   2.0000      -0.428437       -11.6584
  71   2.0000      -0.427582       -11.6351
  72   2.0000      -0.427178       -11.6241
  73   2.0000      -0.425890       -11.5890
  74   2.0000      -0.425469       -11.5776
  75   2.0000      -0.424043       -11.5388
  76   2.0000      -0.423024       -11.5111
  77   2.0000      -0.422676       -11.5016
  78   2.0000      -0.421950       -11.4818
  79   2.0000      -0.421553       -11.4710
  80   2.0000      -0.421481       -11.4691
  81   2.0000      -0.421407       -11.4671
  82   2.0000      -0.421072       -11.4579
  83   2.0000      -0.420959       -11.4549
  84   2.0000      -0.419115       -11.4047
  85   2.0000      -0.419010       -11.4018
  86   2.0000      -0.418364       -11.3843
  87   2.0000      -0.414463       -11.2781
  88   2.0000      -0.414300       -11.2737
  89   2.0000      -0.362188        -9.8557
  90   2.0000      -0.354391        -9.6435
  91   2.0000      -0.351833        -9.5739
  92   2.0000      -0.351204        -9.5567
  93   2.0000      -0.350978        -9.5506
  94   2.0000      -0.348599        -9.4859
  95   2.0000      -0.346861        -9.4386
  96   2.0000      -0.346616        -9.4319
  97   2.0000      -0.345760        -9.4086
  98   2.0000      -0.344186        -9.3658
  99   2.0000      -0.322071        -8.7640
 100   2.0000      -0.320217        -8.7135
 101   2.0000      -0.318816        -8.6754
 102   2.0000      -0.317857        -8.6493
 103   2.0000      -0.316363        -8.6087
 104   2.0000      -0.315265        -8.5788
 105   2.0000      -0.314608        -8.5609
 106   2.0000      -0.313781        -8.5384
 107   2.0000      -0.313551        -8.5322
 108   2.0000      -0.313355        -8.5268
 109   2.0000      -0.312675        -8.5083
 110   2.0000      -0.312511        -8.5039
 111   2.0000      -0.311232        -8.4691
 112   2.0000      -0.310110        -8.4385
 113   2.0000      -0.309069        -8.4102
 114   2.0000      -0.308110        -8.3841
 115   2.0000      -0.306721        -8.3463
 116   2.0000      -0.306142        -8.3305
 117   2.0000      -0.302953        -8.2438
 118   2.0000      -0.302432        -8.2296
 119   0.0000      -0.010813        -0.2942
 120   0.0000      -0.009563        -0.2602
 121   0.0000      -0.007807        -0.2124
 122   0.0000      -0.005672        -0.1543
 123   0.0000      -0.002938        -0.0800

MULLIKEN ATOMIC CHARGES
-----------------------
   0 K :    0.906983
   1 C :   -0.698782
   2 C :    0.377242
   3 N :   -0.364069
   4 H :    0.232479
   5 H :    0.243841
   6 H :    0.217148
   7 C :   -0.568419
   8 C :    0.312509
   9 N :   -0.367393
  10 H :    0.212726
  11 H :    0.212654
  12 H :    0.212954
  13 C :   -0.604247
  14 C :    0.365452
  15 N :   -0.400611
  16 H :    0.214260
  17 H :    0.230988
  18 H :    0.211967
  19 C :   -0.629499
  20 C :    0.394898
  21 N :   -0.446394
  22 H :    0.228575
  23 H :    0.214277
  24 H :    0.227727
  25 C :   -0.621605
  26 C :    0.394136
  27 N :   -0.418986
  28 H :    0.238033
  29 H :    0.211892
  30 H :    0.211943
  31 C :   -0.635844
  32 C :    0.376522
  33 N :   -0.417214
  34 H :    0.223126
  35 H :    0.212033
  36 H :    0.231444
  37 C :   -0.663315
  38 C :    0.369724
  39 N :   -0.379434
  40 H :    0.231525
  41 H :    0.214901
  42 H :    0.234387
  43 C :   -0.577294
  44 C :    0.339413
  45 N :   -0.385977
  46 H :    0.213581
  47 H :    0.213454
  48 H :    0.213697
  49 C :   -0.576748
  50 C :    0.338067
  51 N :   -0.381834
  52 H :    0.213334
  53 H :    0.213541
  54 H :    0.213306
  55 C :   -0.626734
  56 C :    0.380473
  57 N :   -0.403107
  58 H :    0.213834
  59 H :    0.232343
  60 H :    0.216117
Sum of atomic charges:    1.0000000

LOEWDIN ATOMIC CHARGES
----------------------
   0 K :    0.780017
   1 C :   -0.355725
   2 C :    0.157818
   3 N :   -0.394567
   4 H :    0.207935
   5 H :    0.211896
   6 H :    0.204813
   7 C :   -0.351051
   8 C :    0.164068
   9 N :   -0.409059
  10 H :    0.201465
  11 H :    0.201426
  12 H :    0.201457
  13 C :   -0.355019
  14 C :    0.186346
  15 N :   -0.414185
  16 H :    0.202207
  17 H :    0.216834
  18 H :    0.201528
  19 C :   -0.357592
  20 C :    0.188052
  21 N :   -0.444919
  22 H :    0.216158
  23 H :    0.203499
  24 H :    0.212570
  25 C :   -0.358266
  26 C :    0.189614
  27 N :   -0.426344
  28 H :    0.219764
  29 H :    0.201795
  30 H :    0.201470
  31 C :   -0.357511
  32 C :    0.194095
  33 N :   -0.442665
  34 H :    0.215321
  35 H :    0.201369
  36 H :    0.212796
  37 C :   -0.354490
  38 C :    0.154687
  39 N :   -0.395746
  40 H :    0.209383
  41 H :    0.203036
  42 H :    0.212809
  43 C :   -0.349699
  44 C :    0.173275
  45 N :   -0.427557
  46 H :    0.202221
  47 H :    0.202208
  48 H :    0.202200
  49 C :   -0.350132
  50 C :    0.170680
  51 N :   -0.424882
  52 H :    0.201932
  53 H :    0.201963
  54 H :    0.201962
  55 C :   -0.353228
  56 C :    0.184325
  57 N :   -0.413161
  58 H :    0.202869
  59 H :    0.215117
  60 H :    0.202819

  Mayer bond orders larger than 0.100000
B(  1-C ,  2-C ) :   0.8606 B(  1-C ,  4-H ) :   0.9431 B(  1-C ,  5-H ) :   0.9401
B(  1-C ,  6-H ) :   0.9249 B(  2-C ,  3-N ) :   2.8212 B(  7-C ,  8-C ) :   0.9691
B(  7-C , 10-H ) :   0.9399 B(  7-C , 11-H ) :   0.9397 B(  7-C , 12-H ) :   0.9397
B(  8-C ,  9-N ) :   2.7826 B( 13-C , 14-C ) :   0.9585 B( 13-C , 16-H ) :   0.9466
B( 13-C , 17-H ) :   0.9184 B( 13-C , 18-H ) :   0.9409 B( 14-C , 15-N ) :   2.6546
B( 19-C , 20-C ) :   0.9648 B( 19-C , 22-H ) :   0.9217 B( 19-C , 23-H ) :   0.9435
B( 19-C , 24-H ) :   0.9250 B( 20-C , 21-N ) :   2.7540 B( 25-C , 26-C ) :   0.9678
B( 25-C , 28-H ) :   0.9160 B( 25-C , 29-H ) :   0.9419 B( 25-C , 30-H ) :   0.9457
B( 26-C , 27-N ) :   2.5560 B( 31-C , 32-C ) :   0.9572 B( 31-C , 34-H ) :   0.9221
B( 31-C , 35-H ) :   0.9472 B( 31-C , 36-H ) :   0.9256 B( 32-C , 33-N ) :   2.7429
B( 37-C , 38-C ) :   0.9136 B( 37-C , 40-H ) :   0.9340 B( 37-C , 41-H ) :   0.9371
B( 37-C , 42-H ) :   0.9292 B( 38-C , 39-N ) :   2.7691 B( 43-C , 44-C ) :   0.9703
B( 43-C , 46-H ) :   0.9404 B( 43-C , 47-H ) :   0.9396 B( 43-C , 48-H ) :   0.9400
B( 44-C , 45-N ) :   2.7500 B( 49-C , 50-C ) :   0.9683 B( 49-C , 52-H ) :   0.9402
B( 49-C , 53-H ) :   0.9409 B( 49-C , 54-H ) :   0.9396 B( 50-C , 51-N ) :   2.7474
B( 55-C , 56-C ) :   0.9442 B( 55-C , 58-H ) :   0.9434 B( 55-C , 59-H ) :   0.9216
B( 55-C , 60-H ) :   0.9393 B( 56-C , 57-N ) :   2.7348

Dispersion correction           -0.020802034
FINAL SINGLE POINT ENERGY     -1927.126083830896

DIPOLE MOMENT
-------------
                                X             Y             Z
Electronic contribution:     -1.89162      -4.47438       0.26745
Nuclear contribution   :      2.98625       5.81244       0.84062
                        -----------------------------------------
Total Dipole Moment    :      1.09464       1.33807       1.10807
                        -----------------------------------------
Magnitude (a.u.)       :      2.05341
Magnitude (Debye)      :      5.21934

Rotational constants in cm-1:     0.003056     0.002493     0.001694
Rotational constants in MHz :    91.616911    74.745358    50.769888

                             ****ORCA TERMINATED NORMALLY****
TOTAL RUN TIME: 0 days 0 hours 1 minutes 51 seconds 888 msec
