                         Program Version 5.0.4 -  RELEASE  -
|  1> ! r2SCAN-3c ENERGY TightSCF defgrid3 def2/J
|  2> %maxcore 8000
|  3> %PAL NPROCS 8 END
|  4> %CPCM SMD TRUE
|  5>       SMDSOLVENT "MeCN"
|  6> END
|  7> *xyzfile 1 1  xtbopt.xyz
|  8>
|  9>                          ****END OF INPUT****

CARTESIAN COORDINATES (ANGSTROEM)
---------------------------------
  K      0.836080    0.606024    1.147732
  C     -3.499864    3.128649    2.058254
  C     -2.340002    2.389758    1.688239
  N     -1.405559    1.799794    1.389504
  H     -4.140276    3.256009    1.184035
  H     -3.205596    4.104079    2.441211
  H     -4.047151    2.582787    2.826017
  C      1.439410    4.209087   -0.329069
  C      1.104235    3.108247   -1.161794
  N      0.832551    2.247516   -1.869871
  H      2.407802    4.609555   -0.624117
  H      1.483261    3.881136    0.707449
  H      0.676159    4.980666   -0.438446
  C     -1.401188   -0.146492   -2.561604
  C     -1.999912   -0.708276   -1.398861
  N     -2.499155   -1.182747   -0.482256
  H     -2.115957    0.508490   -3.057884
  H     -1.113323   -0.953160   -3.236566
  H     -0.521718    0.425926   -2.270703
  C      2.003434    1.411287    4.871074
  C      1.879872    2.109258    3.637681
  N      1.777186    2.680645    2.650616
  H      1.400187    0.506525    4.823061
  H      1.653611    2.041511    5.686983
  H      3.046004    1.140931    5.041304
  C      1.740671   -2.951402   -2.353064
  C      1.344551   -2.149002   -1.247113
  N      1.020498   -1.501652   -0.359710
  H      0.985854   -2.896355   -3.137939
  H      1.857011   -3.982255   -2.021313
  H      2.700528   -2.597771   -2.730811
  C     -1.235759   -2.664265    2.126214
  C     -0.443738   -1.692980    2.795308
  N      0.203414   -0.915822    3.332957
  H     -1.658641   -2.211833    1.229687
  H     -2.044373   -3.010115    2.769208
  H     -0.612810   -3.510663    1.844725
  C      4.078824    0.798580   -2.382807
  C      3.609971    0.715132   -1.042843
  N      3.236885    0.637076    0.037566
  H      4.870113    1.544947   -2.451719
  H      3.253442    1.085148   -3.031270
  H      4.464421   -0.175696   -2.686200
  C      4.305316   -2.496098    1.313957
  C      3.796764   -3.649352    0.643130
  N      3.397388   -4.578678    0.104506
  H      4.135794   -2.591395    2.385039
  H      3.796100   -1.607794    0.939710
  H      5.375092   -2.405237    1.123913
  C     -5.992316    3.230064   -3.091407
  C     -5.673687    3.211333   -1.701157
  N     -5.408782    3.196576   -0.586067
  H     -6.532118    2.321007   -3.353246
  H     -5.065921    3.281650   -3.666460
  H     -6.610524    4.098016   -3.315973
  C     -3.114246    7.678199   -1.552459
  C     -1.939931    6.924678   -1.237066
  N     -0.997431    6.325524   -0.985543
  H     -3.879851    7.488615   -0.801131
  H     -3.484299    7.378086   -2.532076
  H     -2.872051    8.740366   -1.564500
  C     -2.264955   -4.634154   -5.691695
  C     -1.484440   -3.649385   -5.013153
  N     -0.857087   -2.859321   -4.470520
  H     -2.129853   -5.600834   -5.207520
  H     -1.945913   -4.700153   -6.731332
  H     -3.317437   -4.355668   -5.649538
  C      6.601761   -3.906589   -1.585805
  C      5.686033   -3.029338   -2.237842
  N      4.951225   -2.318655   -2.755963
  H      6.046434   -4.721899   -1.123361
  H      7.137384   -3.349557   -0.815980
  H      7.310205   -4.306910   -2.309330
  C     -3.236805   -4.518636   -0.136698
  C     -4.219112   -5.163028   -0.949822
  N     -4.998024   -5.683551   -1.610274
  H     -2.280018   -5.023908   -0.258861
  H     -3.539296   -4.562259    0.909717
  H     -3.140271   -3.475448   -0.437848
  C     -0.553942    2.777031   -4.840961
  C     -1.945715    3.050634   -4.682000
  N     -3.064633    3.263377   -4.555038
  H     -0.426038    1.879727   -5.445057
  H     -0.103254    2.624549   -3.858039
  H     -0.072049    3.620213   -5.333914
  C      7.723002    5.416967   -2.893021
  C      6.924303    4.241410   -2.728476
  N      6.284513    3.301658   -2.593467
  H      8.710722    5.138197   -3.258459
  H      7.819997    5.927347   -1.935392
  H      7.245644    6.082190   -3.611643
  C     -9.740365   -3.770999   -0.400172
  C     -8.722424   -2.817152   -0.080916
  N     -7.909336   -2.052797    0.174644
  H    -10.385459   -3.365670   -1.178798
  H    -10.333307   -3.982203    0.488938
  H     -9.275400   -4.689816   -0.755576
  C      6.537398   -0.254074    7.740495
  C      5.713943    0.126381    6.634105
  N      5.053887    0.430885    5.749578
  H      7.207806    0.566020    7.995156
  H      7.122695   -1.133504    7.474201
  H      5.906025   -0.485251    8.597826
  C      8.261709    0.562826    1.507192
  C      7.909305   -0.762482    1.107053
  N      7.623899   -1.824383    0.785703
  H      8.646667    1.108927    0.646891
  H      9.025356    0.518584    2.282810
  H      7.377357    1.069006    1.892868
  C     -5.960219   -4.482599    4.735074
  C     -4.820443   -4.430794    3.874226
  N     -3.905984   -4.385531    3.186489
  H     -6.809389   -4.017985    4.235069
  H     -5.742710   -3.939872    5.654340
  H     -6.195010   -5.520281    4.969364
  C     -5.407080    0.043706    1.019460
  C     -5.437587    0.218037    2.435774
  N     -5.457017    0.366125    3.572707
  H     -6.188887   -0.655336    0.723552
  H     -4.434336   -0.345593    0.718730
  H     -5.574767    1.004243    0.532518

 Total Charge           Charge          ....    1
 Multiplicity           Mult            ....    1
 Number of Electrons    NEL             ....  458
 Basis Dimension        Dim             .... 1558

ORBITAL ENERGIES
----------------

  NO   OCC          E(Eh)            E(eV)
   0   2.0000    -129.358997     -3520.0373
   1   2.0000     -14.162626      -385.3846
   2   2.0000     -14.161899      -385.3649
   3   2.0000     -14.160510      -385.3271
   4   2.0000     -14.160304      -385.3215
   5   2.0000     -14.160185      -385.3182
   6   2.0000     -14.159056      -385.2875
   7   2.0000     -14.158951      -385.2847
   8   2.0000     -14.158877      -385.2826
   9   2.0000     -14.158829      -385.2813
  10   2.0000     -14.158471      -385.2716
  11   2.0000     -14.158246      -385.2655
  12   2.0000     -14.158228      -385.2650
  13   2.0000     -14.157895      -385.2559
  14   2.0000     -14.157858      -385.2549
  15   2.0000     -14.157370      -385.2416
  16   2.0000     -14.155762      -385.1979
  17   2.0000     -14.155651      -385.1949
  18   2.0000     -14.155003      -385.1772
  19   2.0000     -14.154913      -385.1748
  20   2.0000     -14.154208      -385.1556
  21   2.0000     -13.029969      -354.5635
  22   2.0000     -10.355425      -281.7855
  23   2.0000     -10.355151      -281.7780
  24   2.0000     -10.354997      -281.7738
  25   2.0000     -10.088285      -274.5162
  26   2.0000     -10.088060      -274.5101
  27   2.0000     -10.086658      -274.4719
  28   2.0000     -10.084747      -274.4199
  29   2.0000     -10.084710      -274.4189
  30   2.0000     -10.084493      -274.4130
  31   2.0000     -10.083348      -274.3818
  32   2.0000     -10.083109      -274.3753
  33   2.0000     -10.083069      -274.3743
  34   2.0000     -10.082980      -274.3718
  35   2.0000     -10.082963      -274.3714
  36   2.0000     -10.082917      -274.3701
  37   2.0000     -10.082442      -274.3572
  38   2.0000     -10.082371      -274.3553
  39   2.0000     -10.082337      -274.3543
  40   2.0000     -10.082263      -274.3523
  41   2.0000     -10.082252      -274.3520
  42   2.0000     -10.078917      -274.2613
  43   2.0000     -10.078032      -274.2372
  44   2.0000     -10.077589      -274.2251
  45   2.0000     -10.062564      -273.8163
  46   2.0000     -10.062391      -273.8116
  47   2.0000     -10.062341      -273.8102
  48   2.0000     -10.062207      -273.8066
  49   2.0000     -10.062094      -273.8035
  50   2.0000     -10.061885      -273.7978
  51   2.0000     -10.061783      -273.7950
  52   2.0000     -10.057549      -273.6798
  53   2.0000     -10.056067      -273.6395
  54   2.0000     -10.055881      -273.6344
  55   2.0000     -10.054958      -273.6093
  56   2.0000     -10.054543      -273.5980
  57   2.0000     -10.053958      -273.5821
  58   2.0000     -10.053717      -273.5756
  59   2.0000     -10.053463      -273.5686
  60   2.0000     -10.052890      -273.5530
  61   2.0000     -10.051673      -273.5199
  62   2.0000     -10.051569      -273.5171
  63   2.0000     -10.049856      -273.4705
  64   2.0000     -10.049210      -273.4529
  65   2.0000      -1.269878       -34.5551
  66   2.0000      -0.894033       -24.3279
  67   2.0000      -0.893239       -24.3063
  68   2.0000      -0.889424       -24.2025
  69   2.0000      -0.889233       -24.1973
  70   2.0000      -0.887900       -24.1610
  71   2.0000      -0.887716       -24.1560
  72   2.0000      -0.887329       -24.1454
  73   2.0000      -0.886662       -24.1273
  74   2.0000      -0.886336       -24.1184
  75   2.0000      -0.886310       -24.1177
  76   2.0000      -0.886211       -24.1150
  77   2.0000      -0.886139       -24.1131
  78   2.0000      -0.885565       -24.0974
  79   2.0000      -0.885435       -24.0939
  80   2.0000      -0.885154       -24.0863
  81   2.0000      -0.884864       -24.0784
  82   2.0000      -0.883996       -24.0547
  83   2.0000      -0.881934       -23.9986
  84   2.0000      -0.881236       -23.9797
  85   2.0000      -0.880690       -23.9648
  86   2.0000      -0.737960       -20.0809
  87   2.0000      -0.737864       -20.0783
  88   2.0000      -0.737641       -20.0722
  89   2.0000      -0.737012       -20.0551
  90   2.0000      -0.736701       -20.0467
  91   2.0000      -0.736602       -20.0440
  92   2.0000      -0.736342       -20.0369
  93   2.0000      -0.736007       -20.0278
  94   2.0000      -0.735870       -20.0240
  95   2.0000      -0.735705       -20.0195
  96   2.0000      -0.735562       -20.0157
  97   2.0000      -0.735125       -20.0038
  98   2.0000      -0.734238       -19.9796
  99   2.0000      -0.733303       -19.9542
 100   2.0000      -0.732843       -19.9417
 101   2.0000      -0.732723       -19.9384
 102   2.0000      -0.732440       -19.9307
 103   2.0000      -0.731672       -19.9098
 104   2.0000      -0.730827       -19.8868
 105   2.0000      -0.729083       -19.8393
 106   2.0000      -0.651401       -17.7255
 107   2.0000      -0.650183       -17.6924
 108   2.0000      -0.648918       -17.6580
 109   2.0000      -0.481672       -13.1069
 110   2.0000      -0.477333       -12.9889
 111   2.0000      -0.476524       -12.9669
 112   2.0000      -0.476276       -12.9601
 113   2.0000      -0.475864       -12.9489
 114   2.0000      -0.475172       -12.9301
 115   2.0000      -0.474928       -12.9235
 116   2.0000      -0.474026       -12.8989
 117   2.0000      -0.473604       -12.8874
 118   2.0000      -0.472927       -12.8690
 119   2.0000      -0.472745       -12.8640
 120   2.0000      -0.472252       -12.8506
 121   2.0000      -0.470984       -12.8161
 122   2.0000      -0.470678       -12.8078
 123   2.0000      -0.469408       -12.7732
 124   2.0000      -0.468990       -12.7619
 125   2.0000      -0.468134       -12.7386
 126   2.0000      -0.467291       -12.7156
 127   2.0000      -0.466361       -12.6903
 128   2.0000      -0.464949       -12.6519
 129   2.0000      -0.431933       -11.7535
 130   2.0000      -0.428624       -11.6634
 131   2.0000      -0.427659       -11.6372
 132   2.0000      -0.427558       -11.6345
 133   2.0000      -0.427003       -11.6193
 134   2.0000      -0.426250       -11.5989
 135   2.0000      -0.424782       -11.5589
 136   2.0000      -0.424332       -11.5467
 137   2.0000      -0.424013       -11.5380
 138   2.0000      -0.423286       -11.5182
 139   2.0000      -0.422727       -11.5030
 140   2.0000      -0.422468       -11.4959
 141   2.0000      -0.422016       -11.4836
 142   2.0000      -0.421748       -11.4763
 143   2.0000      -0.421395       -11.4667
 144   2.0000      -0.421371       -11.4661
 145   2.0000      -0.421097       -11.4586
 146   2.0000      -0.420761       -11.4495
 147   2.0000      -0.420706       -11.4480
 148   2.0000      -0.420598       -11.4451
 149   2.0000      -0.420587       -11.4448
 150   2.0000      -0.420560       -11.4440
 151   2.0000      -0.420547       -11.4437
 152   2.0000      -0.420321       -11.4375
 153   2.0000      -0.420217       -11.4347
 154   2.0000      -0.420069       -11.4307
 155   2.0000      -0.419902       -11.4261
 156   2.0000      -0.419568       -11.4170
 157   2.0000      -0.419462       -11.4141
 158   2.0000      -0.418968       -11.4007
 159   2.0000      -0.417944       -11.3728
 160   2.0000      -0.416879       -11.3438
 161   2.0000      -0.416053       -11.3214
 162   2.0000      -0.415330       -11.3017
 163   2.0000      -0.414643       -11.2830
 164   2.0000      -0.413994       -11.2654
 165   2.0000      -0.412080       -11.2133
 166   2.0000      -0.411301       -11.1921
 167   2.0000      -0.410366       -11.1666
 168   2.0000      -0.409512       -11.1434
 169   2.0000      -0.361538        -9.8380
 170   2.0000      -0.355266        -9.6673
 171   2.0000      -0.352536        -9.5930
 172   2.0000      -0.351812        -9.5733
 173   2.0000      -0.350898        -9.5484
 174   2.0000      -0.349806        -9.5187
 175   2.0000      -0.348817        -9.4918
 176   2.0000      -0.348531        -9.4840
 177   2.0000      -0.348014        -9.4699
 178   2.0000      -0.347138        -9.4461
 179   2.0000      -0.346645        -9.4327
 180   2.0000      -0.346223        -9.4212
 181   2.0000      -0.345775        -9.4090
 182   2.0000      -0.345077        -9.3900
 183   2.0000      -0.344644        -9.3782
 184   2.0000      -0.344254        -9.3676
 185   2.0000      -0.342907        -9.3310
 186   2.0000      -0.342133        -9.3099
 187   2.0000      -0.341141        -9.2829
 188   2.0000      -0.340087        -9.2542
 189   2.0000      -0.321552        -8.7499
 190   2.0000      -0.318980        -8.6799
 191   2.0000      -0.318018        -8.6537
 192   2.0000      -0.317241        -8.6326
 193   2.0000      -0.316990        -8.6257
 194   2.0000      -0.316498        -8.6123
 195   2.0000      -0.315988        -8.5985
 196   2.0000      -0.315132        -8.5752
 197   2.0000      -0.315064        -8.5733
 198   2.0000      -0.314054        -8.5458
 199   2.0000      -0.313574        -8.5328
 200   2.0000      -0.313340        -8.5264
 201   2.0000      -0.313005        -8.5173
 202   2.0000      -0.312266        -8.4972
 203   2.0000      -0.312184        -8.4950
 204   2.0000      -0.312161        -8.4943
 205   2.0000      -0.312121        -8.4932
 206   2.0000      -0.312098        -8.4926
 207   2.0000      -0.311765        -8.4836
 208   2.0000      -0.311548        -8.4776
 209   2.0000      -0.311503        -8.4764
 210   2.0000      -0.311173        -8.4675
 211   2.0000      -0.310650        -8.4532
 212   2.0000      -0.309736        -8.4284
 213   2.0000      -0.309364        -8.4182
 214   2.0000      -0.308903        -8.4057
 215   2.0000      -0.307998        -8.3811
 216   2.0000      -0.306345        -8.3361
 217   2.0000      -0.306048        -8.3280
 218   2.0000      -0.305723        -8.3192
 219   2.0000      -0.304531        -8.2867
 220   2.0000      -0.304348        -8.2817
 221   2.0000      -0.302864        -8.2413
 222   2.0000      -0.302323        -8.2266
 223   2.0000      -0.301939        -8.2162
 224   2.0000      -0.300694        -8.1823
 225   2.0000      -0.299272        -8.1436
 226   2.0000      -0.298103        -8.1118
 227   2.0000      -0.296848        -8.0776
 228   2.0000      -0.293304        -7.9812
 229   0.0000      -0.014484        -0.3941
 230   0.0000      -0.010530        -0.2865
 231   0.0000      -0.009498        -0.2585
 232   0.0000      -0.007873        -0.2142
 233   0.0000      -0.005719        -0.1556

MULLIKEN ATOMIC CHARGES
-----------------------
   0 K :    0.849663
   1 C :   -0.647172
   2 C :    0.387757
   3 N :   -0.413510
   4 H :    0.242646
   5 H :    0.210923
   6 H :    0.219560
   7 C :   -0.589055
   8 C :    0.374459
   9 N :   -0.423407
  10 H :    0.215768
  11 H :    0.219309
  12 H :    0.239409
  13 C :   -0.625685
  14 C :    0.387138
  15 N :   -0.416771
  16 H :    0.212502
  17 H :    0.232175
  18 H :    0.226025
  19 C :   -0.608683
  20 C :    0.422262
  21 N :   -0.458770
  22 H :    0.226840
  23 H :    0.213293
  24 H :    0.226837
  25 C :   -0.650436
  26 C :    0.401878
  27 N :   -0.427177
  28 H :    0.220508
  29 H :    0.219742
  30 H :    0.229837
  31 C :   -0.560440
  32 C :    0.353098
  33 N :   -0.464432
  34 H :    0.229206
  35 H :    0.225288
  36 H :    0.220347
  37 C :   -0.651712
  38 C :    0.390571
  39 N :   -0.420394
  40 H :    0.234572
  41 H :    0.213108
  42 H :    0.230395
  43 C :   -0.619974
  44 C :    0.347418
  45 N :   -0.381384
  46 H :    0.212691
  47 H :    0.218762
  48 H :    0.221601
  49 C :   -0.594876
  50 C :    0.330625
  51 N :   -0.384990
  52 H :    0.210759
  53 H :    0.232555
  54 H :    0.210719
  55 C :   -0.571542
  56 C :    0.316315
  57 N :   -0.369518
  58 H :    0.213084
  59 H :    0.213120
  60 H :    0.212429
  61 C :   -0.581197
  62 C :    0.341926
  63 N :   -0.383793
  64 H :    0.213733
  65 H :    0.213335
  66 H :    0.213768
  67 C :   -0.624334
  68 C :    0.351399
  69 N :   -0.389127
  70 H :    0.218279
  71 H :    0.237127
  72 H :    0.210537
  73 C :   -0.559466
  74 C :    0.262037
  75 N :   -0.370131
  76 H :    0.213032
  77 H :    0.221111
  78 H :    0.218379
  79 C :   -0.584630
  80 C :    0.308680
  81 N :   -0.370235
  82 H :    0.214912
  83 H :    0.224159
  84 H :    0.211262
  85 C :   -0.568048
  86 C :    0.310978
  87 N :   -0.366908
  88 H :    0.212493
  89 H :    0.212473
  90 H :    0.212165
  91 C :   -0.567361
  92 C :    0.307810
  93 N :   -0.365996
  94 H :    0.212250
  95 H :    0.212351
  96 H :    0.212829
  97 C :   -0.572195
  98 C :    0.324046
  99 N :   -0.375805
 100 H :    0.212781
 101 H :    0.212400
 102 H :    0.212335
 103 C :   -0.578966
 104 C :    0.336362
 105 N :   -0.381550
 106 H :    0.213136
 107 H :    0.213584
 108 H :    0.213847
 109 C :   -0.573925
 110 C :    0.332342
 111 N :   -0.380762
 112 H :    0.213224
 113 H :    0.213176
 114 H :    0.213021
 115 C :   -0.612202
 116 C :    0.304687
 117 N :   -0.378700
 118 H :    0.229982
 119 H :    0.221081
 120 H :    0.217039
Sum of atomic charges:    1.0000000

LOEWDIN ATOMIC CHARGES
----------------------
   0 K :    0.804906
   1 C :   -0.357066
   2 C :    0.191323
   3 N :   -0.441296
   4 H :    0.221037
   5 H :    0.201278
   6 H :    0.206780
   7 C :   -0.360852
   8 C :    0.172818
   9 N :   -0.423070
  10 H :    0.203508
  11 H :    0.216205
  12 H :    0.219070
  13 C :   -0.360014
  14 C :    0.172151
  15 N :   -0.441391
  16 H :    0.204022
  17 H :    0.216308
  18 H :    0.216429
  19 C :   -0.356497
  20 C :    0.180317
  21 N :   -0.440106
  22 H :    0.213486
  23 H :    0.203076
  24 H :    0.218076
  25 C :   -0.360271
  26 C :    0.188454
  27 N :   -0.424987
  28 H :    0.212520
  29 H :    0.205988
  30 H :    0.216372
  31 C :   -0.359211
  32 C :    0.178507
  33 N :   -0.435651
  34 H :    0.223309
  35 H :    0.214998
  36 H :    0.206027
  37 C :   -0.365955
  38 C :    0.185330
  39 N :   -0.444255
  40 H :    0.216464
  41 H :    0.201796
  42 H :    0.217381
  43 C :   -0.354427
  44 C :    0.154031
  45 N :   -0.404851
  46 H :    0.201849
  47 H :    0.211366
  48 H :    0.212243
  49 C :   -0.361653
  50 C :    0.166851
  51 N :   -0.427342
  52 H :    0.200592
  53 H :    0.217233
  54 H :    0.200287
  55 C :   -0.351312
  56 C :    0.162836
  57 N :   -0.407134
  58 H :    0.201420
  59 H :    0.201385
  60 H :    0.201431
  61 C :   -0.350483
  62 C :    0.170942
  63 N :   -0.425506
  64 H :    0.202038
  65 H :    0.202086
  66 H :    0.202103
  67 C :   -0.360482
  68 C :    0.168353
  69 N :   -0.433649
  70 H :    0.203109
  71 H :    0.215991
  72 H :    0.200243
  73 C :   -0.364996
  74 C :    0.151939
  75 N :   -0.408281
  76 H :    0.201263
  77 H :    0.212924
  78 H :    0.211040
  79 C :   -0.357890
  80 C :    0.159011
  81 N :   -0.414435
  82 H :    0.202038
  83 H :    0.216407
  84 H :    0.201141
  85 C :   -0.351295
  86 C :    0.161530
  87 N :   -0.406854
  88 H :    0.201158
  89 H :    0.201210
  90 H :    0.201102
  91 C :   -0.351340
  92 C :    0.160345
  93 N :   -0.406123
  94 H :    0.201115
  95 H :    0.201093
  96 H :    0.201336
  97 C :   -0.350978
  98 C :    0.163215
  99 N :   -0.411483
 100 H :    0.201273
 101 H :    0.201206
 102 H :    0.201176
 103 C :   -0.350264
 104 C :    0.168083
 105 N :   -0.424561
 106 H :    0.201939
 107 H :    0.202020
 108 H :    0.202065
 109 C :   -0.350622
 110 C :    0.167661
 111 N :   -0.421150
 112 H :    0.201774
 113 H :    0.201806
 114 H :    0.201659
 115 C :   -0.370799
 116 C :    0.148382
 117 N :   -0.413889
 118 H :    0.213642
 119 H :    0.209498
 120 H :    0.208040

  Mayer bond orders larger than 0.100000
B(  1-C ,  2-C ) :   0.9251 B(  1-C ,  4-H ) :   0.9238 B(  1-C ,  5-H ) :   0.9368
B(  1-C ,  6-H ) :   0.9441 B(  2-C ,  3-N ) :   2.5931 B(  7-C ,  8-C ) :   0.9619
B(  7-C , 10-H ) :   0.9493 B(  7-C , 11-H ) :   0.9070 B(  7-C , 12-H ) :   0.9283
B(  8-C ,  9-N ) :   2.6193 B( 13-C , 14-C ) :   0.9471 B( 13-C , 16-H ) :   0.9395
B( 13-C , 17-H ) :   0.9272 B( 13-C , 18-H ) :   0.9296 B( 14-C , 15-N ) :   2.6385
B( 19-C , 20-C ) :   0.9732 B( 19-C , 22-H ) :   0.9210 B( 19-C , 23-H ) :   0.9419
B( 19-C , 24-H ) :   0.9216 B( 20-C , 21-N ) :   2.6673 B( 25-C , 26-C ) :   0.9298
B( 25-C , 28-H ) :   0.9212 B( 25-C , 29-H ) :   0.9424 B( 25-C , 30-H ) :   0.9325
B( 26-C , 27-N ) :   2.5866 B( 31-C , 32-C ) :   1.0274 B( 31-C , 34-H ) :   0.9006
B( 31-C , 35-H ) :   0.9226 B( 31-C , 36-H ) :   0.9392 B( 32-C , 33-N ) :   2.6756
B( 37-C , 38-C ) :   0.9558 B( 37-C , 40-H ) :   0.9303 B( 37-C , 41-H ) :   0.9378
B( 37-C , 42-H ) :   0.9188 B( 38-C , 39-N ) :   2.7301 B( 43-C , 44-C ) :   0.9359
B( 43-C , 46-H ) :   0.9411 B( 43-C , 47-H ) :   0.9343 B( 43-C , 48-H ) :   0.9289
B( 44-C , 45-N ) :   2.8387 B( 49-C , 50-C ) :   0.9712 B( 49-C , 52-H ) :   0.9433
B( 49-C , 53-H ) :   0.9168 B( 49-C , 54-H ) :   0.9425 B( 50-C , 51-N ) :   2.7597
B( 55-C , 56-C ) :   0.9686 B( 55-C , 58-H ) :   0.9405 B( 55-C , 59-H ) :   0.9407
B( 55-C , 60-H ) :   0.9386 B( 56-C , 57-N ) :   2.7805 B( 61-C , 62-C ) :   0.9675
B( 61-C , 64-H ) :   0.9411 B( 61-C , 65-H ) :   0.9394 B( 61-C , 66-H ) :   0.9405
B( 62-C , 63-N ) :   2.7484 B( 67-C , 68-C ) :   0.9449 B( 67-C , 70-H ) :   0.9394
B( 67-C , 71-H ) :   0.9258 B( 67-C , 72-H ) :   0.9393 B( 68-C , 69-N ) :   2.7577
B( 73-C , 74-C ) :   1.0411 B( 73-C , 76-H ) :   0.9349 B( 73-C , 77-H ) :   0.9214
B( 73-C , 78-H ) :   0.9210 B( 74-C , 75-N ) :   2.8504 B( 79-C , 80-C ) :   0.9519
B( 79-C , 82-H ) :   0.9428 B( 79-C , 83-H ) :   0.9219 B( 79-C , 84-H ) :   0.9396
B( 80-C , 81-N ) :   2.7931 B( 85-C , 86-C ) :   0.9701 B( 85-C , 88-H ) :   0.9398
B( 85-C , 89-H ) :   0.9402 B( 85-C , 90-H ) :   0.9399 B( 86-C , 87-N ) :   2.7904
B( 91-C , 92-C ) :   0.9702 B( 91-C , 94-H ) :   0.9397 B( 91-C , 95-H ) :   0.9401
B( 91-C , 96-H ) :   0.9398 B( 92-C , 93-N ) :   2.7980 B( 97-C , 98-C ) :   0.9680
B( 97-C ,100-H ) :   0.9405 B( 97-C ,101-H ) :   0.9404 B( 97-C ,102-H ) :   0.9405
B( 98-C , 99-N ) :   2.7891 B(103-C ,104-C ) :   0.9712 B(103-C ,106-H ) :   0.9399
B(103-C ,107-H ) :   0.9395 B(103-C ,108-H ) :   0.9398 B(104-C ,105-N ) :   2.7699
B(109-C ,110-C ) :   0.9710 B(109-C ,112-H ) :   0.9407 B(109-C ,113-H ) :   0.9403
B(109-C ,114-H ) :   0.9392 B(110-C ,111-N ) :   2.7574 B(115-C ,116-C ) :   0.9529
B(115-C ,118-H ) :   0.9206 B(115-C ,119-H ) :   0.9372 B(115-C ,120-H ) :   0.9355
B(116-C ,117-N ) :   2.8551

Dispersion correction           -0.045641729
FINAL SINGLE POINT ENERGY     -3254.395950098866

DIPOLE MOMENT
-------------
                                X             Y             Z
Electronic contribution:      2.55799       1.32588       9.14735
Nuclear contribution   :      1.18167       1.98013      -9.88124
                        -----------------------------------------
Total Dipole Moment    :      3.73965       3.30601      -0.73389
                        -----------------------------------------
Magnitude (a.u.)       :      5.04513
Magnitude (Debye)      :     12.82369

Rotational constants in cm-1:     0.001060     0.000689     0.000626
Rotational constants in MHz :    31.771820    20.658963    18.773206

                             ****ORCA TERMINATED NORMALLY****
TOTAL RUN TIME: 0 days 0 hours 6 minutes 38 seconds 462 msec
