                         Program Version 5.0.4 -  RELEASE  -
|  1> ! r2SCAN-3c ENERGY TightSCF defgrid3 def2/J
|  2> %maxcore 8000
|  3> %PAL NPROCS 8 END
|  4> %CPCM SMD TRUE
|  5>       SMDSOLVENT "MeCN"
|  6> END
|  7> *xyzfile 1 1  xtbopt.xyz
|  8>
|  9>                          ****END OF INPUT****

CARTESIAN COORDINATES (ANGSTROEM)
---------------------------------
  Li     1.654846   -1.069626    0.644734
  C      3.293329   -2.508844   -3.407230
  C      2.812584   -1.972162   -2.180345
  N      2.442024   -1.530470   -1.191816
  H      3.083187   -1.817286   -4.221806
  H      2.812012   -3.465343   -3.605023
  H      4.371551   -2.654494   -3.318111
  C     -0.178773   -4.708124    2.445490
  C      0.640167   -3.623068    2.030055
  N      1.300654   -2.750996    1.693052
  H     -1.103129   -4.685577    1.863174
  H     -0.413796   -4.611857    3.504328
  H      0.336633   -5.651094    2.269146
  C      3.607792    2.614909    2.322989
  C      3.231853    1.323461    1.861187
  N      2.935785    0.287103    1.475490
  H      2.837759    3.327223    2.019943
  H      4.562490    2.902476    1.884478
  H      3.690790    2.611446    3.408743
  C     -2.203695    1.237059   -0.343474
  C     -1.010726    0.549337    0.013624
  N     -0.043975    0.006502    0.295361
  H     -2.640135    1.704072    0.540619
  H     -2.913497    0.532164   -0.774429
  H     -1.961237    1.998425   -1.084139
  C      5.652386   -2.142977    0.797765
  C      5.882700   -2.349093   -0.597775
  N      6.064032   -2.513662   -1.716913
  H      4.680365   -1.665326    0.932372
  H      6.436720   -1.507150    1.205807
  H      5.660430   -3.103314    1.311282
  C      2.015209    2.265508   -1.505301
  C      0.821220    2.241629   -2.283195
  N     -0.146139    2.229682   -2.898083
  H      2.237480    1.255259   -1.159956
  H      1.857208    2.913128   -0.641676
  H      2.839428    2.646328   -2.106157
  C     -4.438737   -3.734181   -1.301563
  C     -3.474877   -4.053120   -0.298942
  N     -2.701289   -4.307023    0.507400
  H     -4.116098   -2.844909   -1.845200
  H     -5.403541   -3.543153   -0.833504
  H     -4.531617   -4.568006   -1.996201
  C     -2.635321    0.817634   -4.500298
  C     -3.142334   -0.206322   -3.646440
  N     -3.548783   -1.020523   -2.949391
  H     -2.313880    0.380153   -5.444373
  H     -1.784840    1.302294   -4.016966
  H     -3.415161    1.554390   -4.689241
  C     -1.395775    4.997125    1.089651
  C     -0.054587    4.513270    1.092710
  N      1.022073    4.120513    1.093932
  H     -2.057601    4.229541    1.493650
  H     -1.695116    5.237833    0.070339
  H     -1.461897    5.892619    1.706557
  C     -4.957426    2.205548    4.395529
  C     -4.125970    2.464717    3.264378
  N     -3.459215    2.671771    2.356110
  H     -4.895242    1.149616    4.656902
  H     -5.989175    2.459929    4.154450
  H     -4.623160    2.808467    5.239330

 Total Charge           Charge          ....    1
 Multiplicity           Mult            ....    1
 Number of Electrons    NEL             ....  222
 Basis Dimension        Dim             ....  781

ORBITAL ENERGIES
----------------

  NO   OCC          E(Eh)            E(eV)
   0   2.0000     -14.171351      -385.6221
   1   2.0000     -14.170874      -385.6091
   2   2.0000     -14.170591      -385.6014
   3   2.0000     -14.170380      -385.5957
   4   2.0000     -14.161461      -385.3529
   5   2.0000     -14.160113      -385.3163
   6   2.0000     -14.158967      -385.2851
   7   2.0000     -14.158070      -385.2607
   8   2.0000     -14.157557      -385.2467
   9   2.0000     -14.157491      -385.2449
  10   2.0000     -10.098518      -274.7946
  11   2.0000     -10.097544      -274.7681
  12   2.0000     -10.097358      -274.7631
  13   2.0000     -10.096809      -274.7481
  14   2.0000     -10.086160      -274.4584
  15   2.0000     -10.084996      -274.4267
  16   2.0000     -10.083279      -274.3800
  17   2.0000     -10.082238      -274.3516
  18   2.0000     -10.081960      -274.3441
  19   2.0000     -10.081786      -274.3393
  20   2.0000     -10.063225      -273.8343
  21   2.0000     -10.062105      -273.8038
  22   2.0000     -10.061175      -273.7785
  23   2.0000     -10.059625      -273.7363
  24   2.0000     -10.058294      -273.7001
  25   2.0000     -10.058221      -273.6981
  26   2.0000     -10.057785      -273.6862
  27   2.0000     -10.057718      -273.6844
  28   2.0000     -10.055378      -273.6208
  29   2.0000     -10.055072      -273.6124
  30   2.0000      -1.852752       -50.4159
  31   2.0000      -0.899782       -24.4843
  32   2.0000      -0.899101       -24.4658
  33   2.0000      -0.898663       -24.4539
  34   2.0000      -0.898156       -24.4401
  35   2.0000      -0.889063       -24.1926
  36   2.0000      -0.887903       -24.1611
  37   2.0000      -0.886216       -24.1152
  38   2.0000      -0.885143       -24.0860
  39   2.0000      -0.885124       -24.0854
  40   2.0000      -0.884640       -24.0723
  41   2.0000      -0.742091       -20.1933
  42   2.0000      -0.741111       -20.1667
  43   2.0000      -0.740487       -20.1497
  44   2.0000      -0.740343       -20.1458
  45   2.0000      -0.738407       -20.0931
  46   2.0000      -0.736401       -20.0385
  47   2.0000      -0.735850       -20.0235
  48   2.0000      -0.735491       -20.0137
  49   2.0000      -0.734024       -19.9738
  50   2.0000      -0.732818       -19.9410
  51   2.0000      -0.482047       -13.1172
  52   2.0000      -0.479954       -13.0602
  53   2.0000      -0.479309       -13.0427
  54   2.0000      -0.479007       -13.0344
  55   2.0000      -0.475720       -12.9450
  56   2.0000      -0.475656       -12.9433
  57   2.0000      -0.473452       -12.8833
  58   2.0000      -0.472592       -12.8599
  59   2.0000      -0.471352       -12.8262
  60   2.0000      -0.468681       -12.7535
  61   2.0000      -0.433093       -11.7851
  62   2.0000      -0.431528       -11.7425
  63   2.0000      -0.431211       -11.7339
  64   2.0000      -0.427730       -11.6391
  65   2.0000      -0.427123       -11.6226
  66   2.0000      -0.426479       -11.6051
  67   2.0000      -0.424908       -11.5623
  68   2.0000      -0.424303       -11.5459
  69   2.0000      -0.423821       -11.5328
  70   2.0000      -0.422995       -11.5103
  71   2.0000      -0.422229       -11.4894
  72   2.0000      -0.420614       -11.4455
  73   2.0000      -0.420354       -11.4384
  74   2.0000      -0.420137       -11.4325
  75   2.0000      -0.418634       -11.3916
  76   2.0000      -0.418110       -11.3774
  77   2.0000      -0.418062       -11.3761
  78   2.0000      -0.417179       -11.3520
  79   2.0000      -0.415878       -11.3166
  80   2.0000      -0.414462       -11.2781
  81   2.0000      -0.392671       -10.6851
  82   2.0000      -0.376492       -10.2449
  83   2.0000      -0.373885       -10.1739
  84   2.0000      -0.371554       -10.1105
  85   2.0000      -0.351818        -9.5735
  86   2.0000      -0.349619        -9.5136
  87   2.0000      -0.348764        -9.4904
  88   2.0000      -0.347605        -9.4588
  89   2.0000      -0.345944        -9.4136
  90   2.0000      -0.343847        -9.3566
  91   2.0000      -0.325051        -8.8451
  92   2.0000      -0.324619        -8.8333
  93   2.0000      -0.323100        -8.7920
  94   2.0000      -0.322748        -8.7824
  95   2.0000      -0.319174        -8.6852
  96   2.0000      -0.318480        -8.6663
  97   2.0000      -0.317665        -8.6441
  98   2.0000      -0.314409        -8.5555
  99   2.0000      -0.314338        -8.5536
 100   2.0000      -0.313240        -8.5237
 101   2.0000      -0.311812        -8.4848
 102   2.0000      -0.310981        -8.4622
 103   2.0000      -0.310620        -8.4524
 104   2.0000      -0.310300        -8.4437
 105   2.0000      -0.309232        -8.4146
 106   2.0000      -0.308189        -8.3862
 107   2.0000      -0.306713        -8.3461
 108   2.0000      -0.305435        -8.3113
 109   2.0000      -0.304689        -8.2910
 110   2.0000      -0.302800        -8.2396
 111   0.0000      -0.020619        -0.5611
 112   0.0000      -0.016224        -0.4415
 113   0.0000      -0.015175        -0.4129
 114   0.0000      -0.011467        -0.3120
 115   0.0000      -0.008930        -0.2430

MULLIKEN ATOMIC CHARGES
-----------------------
   0 Li:    0.848517
   1 C :   -0.617953
   2 C :    0.391498
   3 N :   -0.402367
   4 H :    0.216689
   5 H :    0.217462
   6 H :    0.231243
   7 C :   -0.615682
   8 C :    0.374281
   9 N :   -0.422435
  10 H :    0.245688
  11 H :    0.215121
  12 H :    0.215392
  13 C :   -0.619594
  14 C :    0.381476
  15 N :   -0.413291
  16 H :    0.240003
  17 H :    0.216789
  18 H :    0.215605
  19 C :   -0.674339
  20 C :    0.418168
  21 N :   -0.389195
  22 H :    0.232099
  23 H :    0.221757
  24 H :    0.228834
  25 C :   -0.594591
  26 C :    0.333969
  27 N :   -0.377736
  28 H :    0.212632
  29 H :    0.213485
  30 H :    0.212877
  31 C :   -0.602108
  32 C :    0.335925
  33 N :   -0.385165
  34 H :    0.217619
  35 H :    0.226419
  36 H :    0.212129
  37 C :   -0.587831
  38 C :    0.308389
  39 N :   -0.372479
  40 H :    0.233509
  41 H :    0.210845
  42 H :    0.210124
  43 C :   -0.592454
  44 C :    0.326597
  45 N :   -0.382230
  46 H :    0.210627
  47 H :    0.231661
  48 H :    0.211694
  49 C :   -0.588235
  50 C :    0.331702
  51 N :   -0.387080
  52 H :    0.225517
  53 H :    0.214826
  54 H :    0.212464
  55 C :   -0.575898
  56 C :    0.339379
  57 N :   -0.383340
  58 H :    0.213411
  59 H :    0.213788
  60 H :    0.213790
Sum of atomic charges:    1.0000000

LOEWDIN ATOMIC CHARGES
----------------------
   0 Li:    0.221344
   1 C :   -0.347469
   2 C :    0.228264
   3 N :   -0.319892
   4 H :    0.204894
   5 H :    0.205132
   6 H :    0.215036
   7 C :   -0.354503
   8 C :    0.235321
   9 N :   -0.327023
  10 H :    0.224151
  11 H :    0.204189
  12 H :    0.204599
  13 C :   -0.352693
  14 C :    0.227891
  15 N :   -0.332255
  16 H :    0.221138
  17 H :    0.205232
  18 H :    0.204437
  19 C :   -0.353448
  20 C :    0.227512
  21 N :   -0.316565
  22 H :    0.218877
  23 H :    0.208656
  24 H :    0.210008
  25 C :   -0.349669
  26 C :    0.161175
  27 N :   -0.412341
  28 H :    0.207022
  29 H :    0.201811
  30 H :    0.201824
  31 C :   -0.353293
  32 C :    0.164162
  33 N :   -0.418975
  34 H :    0.209068
  35 H :    0.216421
  36 H :    0.201326
  37 C :   -0.362766
  38 C :    0.164897
  39 N :   -0.416031
  40 H :    0.216963
  41 H :    0.200402
  42 H :    0.200246
  43 C :   -0.361764
  44 C :    0.161056
  45 N :   -0.417986
  46 H :    0.200266
  47 H :    0.217475
  48 H :    0.200804
  49 C :   -0.357856
  50 C :    0.171726
  51 N :   -0.429993
  52 H :    0.214919
  53 H :    0.202158
  54 H :    0.201928
  55 C :   -0.349935
  56 C :    0.173221
  57 N :   -0.427715
  58 H :    0.202142
  59 H :    0.202265
  60 H :    0.202217

  Mayer bond orders larger than 0.100000
B(  1-C ,  2-C ) :   0.9692 B(  1-C ,  4-H ) :   0.9384 B(  1-C ,  5-H ) :   0.9423
B(  1-C ,  6-H ) :   0.9188 B(  2-C ,  3-N ) :   2.6126 B(  7-C ,  8-C ) :   0.9729
B(  7-C , 10-H ) :   0.9087 B(  7-C , 11-H ) :   0.9410 B(  7-C , 12-H ) :   0.9402
B(  8-C ,  9-N ) :   2.6549 B( 13-C , 14-C ) :   0.9687 B( 13-C , 16-H ) :   0.9117
B( 13-C , 17-H ) :   0.9393 B( 13-C , 18-H ) :   0.9411 B( 14-C , 15-N ) :   2.6413
B( 19-C , 20-C ) :   0.8997 B( 19-C , 22-H ) :   0.9170 B( 19-C , 23-H ) :   0.9453
B( 19-C , 24-H ) :   0.9300 B( 20-C , 21-N ) :   2.6013 B( 25-C , 26-C ) :   0.9548
B( 25-C , 28-H ) :   0.9315 B( 25-C , 29-H ) :   0.9430 B( 25-C , 30-H ) :   0.9414
B( 26-C , 27-N ) :   2.8361 B( 31-C , 32-C ) :   0.9545 B( 31-C , 34-H ) :   0.9311
B( 31-C , 35-H ) :   0.9224 B( 31-C , 36-H ) :   0.9410 B( 32-C , 33-N ) :   2.7732
B( 37-C , 38-C ) :   0.9707 B( 37-C , 40-H ) :   0.9189 B( 37-C , 41-H ) :   0.9422
B( 37-C , 42-H ) :   0.9422 B( 38-C , 39-N ) :   2.7713 B( 43-C , 44-C ) :   0.9674
B( 43-C , 46-H ) :   0.9434 B( 43-C , 47-H ) :   0.9157 B( 43-C , 48-H ) :   0.9431
B( 44-C , 45-N ) :   2.7668 B( 49-C , 50-C ) :   0.9617 B( 49-C , 52-H ) :   0.9239
B( 49-C , 53-H ) :   0.9447 B( 49-C , 54-H ) :   0.9388 B( 50-C , 51-N ) :   2.7387
B( 55-C , 56-C ) :   0.9672 B( 55-C , 58-H ) :   0.9399 B( 55-C , 59-H ) :   0.9401
B( 55-C , 60-H ) :   0.9398 B( 56-C , 57-N ) :   2.7441

Dispersion correction           -0.019776329
FINAL SINGLE POINT ENERGY     -1334.770298837828

DIPOLE MOMENT
-------------
                                X             Y             Z
Electronic contribution:      9.44907      -6.53948       0.95602
Nuclear contribution   :    -11.15828       8.21705       1.40163
                        -----------------------------------------
Total Dipole Moment    :     -1.70921       1.67757       2.35765
                        -----------------------------------------
Magnitude (a.u.)       :      3.36068
Magnitude (Debye)      :      8.54217

Rotational constants in cm-1:     0.003386     0.002666     0.002253
Rotational constants in MHz :   101.521109    79.916216    67.537742

                             ****ORCA TERMINATED NORMALLY****
TOTAL RUN TIME: 0 days 0 hours 1 minutes 50 seconds 843 msec
