                         Program Version 5.0.4 -  RELEASE  -
|  1> ! r2SCAN-3c ENERGY TightSCF defgrid3 def2/J
|  2> %maxcore 8000
|  3> %PAL NPROCS 8 END
|  4> %CPCM SMD TRUE
|  5>       SMDSOLVENT "MeCN"
|  6> END
|  7> *xyzfile 1 1  xtbopt.xyz
|  8>
|  9>                          ****END OF INPUT****

CARTESIAN COORDINATES (ANGSTROEM)
---------------------------------
  Li    -2.110775   -1.843178    1.105086
  C      1.534650   -0.833530    1.730748
  C      1.683659   -0.205104    0.459013
  N      1.791341    0.290906   -0.568575
  H      0.501327   -1.164383    1.840212
  H      1.783097   -0.128574    2.524140
  H      2.202069   -1.691982    1.790821
  C     -1.042070    1.848964   -1.304557
  C     -1.482432    0.800745   -0.456087
  N     -1.843570   -0.049092    0.220772
  H     -1.573705    1.796963   -2.256515
  H      0.028688    1.731114   -1.470970
  H     -1.233069    2.812860   -0.835712
  C     -0.201524   -4.803476   -1.623964
  C     -0.560843   -3.898268   -0.590812
  N     -0.847965   -3.171292    0.245446
  H     -0.518628   -4.381658   -2.579039
  H     -0.701049   -5.757028   -1.458613
  H      0.879324   -4.941778   -1.636323
  C     -3.380214   -1.235489   -2.872835
  C     -2.243238   -1.965335   -3.325347
  N     -1.327727   -2.552228   -3.688818
  H     -3.355038   -1.175765   -1.785128
  H     -4.290109   -1.744989   -3.190610
  H     -3.354723   -0.230699   -3.294718
  C     -5.286839   -4.362466   -0.745778
  C     -4.512588   -3.420713   -0.018741
  N     -3.893039   -2.659733    0.571600
  H     -5.483795   -3.981085   -1.749241
  H     -6.231914   -4.539989   -0.234598
  H     -4.725403   -5.294828   -0.810395
  C      3.989762    3.481145   -4.606813
  C      3.465421    4.217100   -3.500903
  N      3.037036    4.813063   -2.620814
  H      3.172693    3.011820   -5.152609
  H      4.670682    2.711113   -4.241190
  H      4.531926    4.155427   -5.268445
  C      3.602495    4.933469    0.664285
  C      2.495043    4.751746    1.537965
  N      1.614358    4.601443    2.258277
  H      4.047365    5.912382    0.837307
  H      3.274479    4.865000   -0.373750
  H      4.342692    4.156055    0.858509
  C     -2.621039   -0.155871    5.192885
  C     -2.318874   -0.923426    4.036859
  N     -2.072895   -1.546921    3.108136
  H     -2.614485    0.902499    4.919392
  H     -1.873388   -0.333008    5.964577
  H     -3.605808   -0.426650    5.570718
  C      2.683429   -2.623969    5.080357
  C      3.346721   -3.174124    3.942477
  N      3.870285   -3.612746    3.022143
  H      2.534513   -1.553757    4.928683
  H      3.294239   -2.781562    5.968353
  H      1.719295   -3.113193    5.209746
  C     -4.771050    1.026707    2.097882
  C     -5.358714    1.877252    1.113423
  N     -5.829431    2.564096    0.326040
  H     -4.130089    1.625684    2.746367
  H     -4.169456    0.259615    1.608582
  H     -5.558083    0.559081    2.686903
  C     -1.504350    5.061861    3.363846
  C     -2.090707    3.813202    3.709138
  N     -2.557425    2.802782    3.988060
  H     -0.496937    4.897755    2.978028
  H     -1.458568    5.703393    4.242672
  H     -2.111518    5.545319    2.596691
  C      7.183165    0.421113    1.962911
  C      6.400528    1.582271    1.679319
  N      5.777364    2.517952    1.459433
  H      8.238300    0.690094    1.986969
  H      7.018584   -0.330031    1.188192
  H      6.888588    0.010858    2.927901
  C      2.455999    3.178180    5.155577
  C      2.401289    1.773676    4.914703
  N      2.351965    0.645784    4.717754
  H      3.484101    3.473802    5.360724
  H      1.825963    3.429444    6.007538
  H      2.101282    3.704456    4.266723
  C     -5.609542    5.760448   -0.345120
  C     -4.476085    6.085502    0.460592
  N     -3.564118    6.334001    1.108267
  H     -5.813538    4.692034   -0.247923
  H     -5.399387    5.999899   -1.386331
  H     -6.474271    6.328974   -0.006202
  C      1.877316   -1.617456   -3.296860
  C      2.534481   -2.766281   -2.768534
  N      3.045566   -3.695943   -2.333472
  H      1.898802   -0.825538   -2.546477
  H      0.841763   -1.871822   -3.529243
  H      2.386596   -1.284560   -4.199337
  C     -2.023886   -5.401771    2.645514
  C     -2.451269   -5.882580    1.369683
  N     -2.797195   -6.271388    0.349111
  H     -1.031960   -5.793431    2.866259
  H     -2.724744   -5.731575    3.411160
  H     -1.990313   -4.312040    2.617499
  C      8.031328   -0.275395   -2.732976
  C      6.979979    0.507031   -3.300608
  N      6.140213    1.135857   -3.760750
  H      7.638850   -0.855692   -1.895738
  H      8.823745    0.383031   -2.379824
  H      8.429016   -0.953165   -3.487183
  C      5.274929   -4.084723    0.068032
  C      6.136330   -2.964329   -0.097600
  N      6.827106   -2.057205   -0.227021
  H      4.795631   -4.026060    1.046063
  H      5.852330   -5.005019   -0.002583
  H      4.514579   -4.067283   -0.714745
  C     -7.457822   -3.303253   -5.859894
  C     -6.683966   -3.218593   -4.662411
  N     -6.065667   -3.149714   -3.700689
  H     -7.968974   -2.356245   -6.030345
  H     -8.194591   -4.099768   -5.760283
  H     -6.801649   -3.519882   -6.702308
  C     -2.965710    3.481583   -6.108636
  C     -2.863804    2.580305   -5.004870
  N     -2.781484    1.858561   -4.119346
  H     -4.011901    3.734653   -6.277170
  H     -2.557236    3.010438   -7.002098
  H     -2.404021    4.388856   -5.887830

 Total Charge           Charge          ....    1
 Multiplicity           Mult            ....    1
 Number of Electrons    NEL             ....  442
 Basis Dimension        Dim             .... 1551

ORBITAL ENERGIES
----------------

  NO   OCC          E(Eh)            E(eV)
   0   2.0000     -14.171261      -385.6196
   1   2.0000     -14.170638      -385.6027
   2   2.0000     -14.170637      -385.6026
   3   2.0000     -14.169058      -385.5597
   4   2.0000     -14.160894      -385.3375
   5   2.0000     -14.160745      -385.3334
   6   2.0000     -14.159006      -385.2861
   7   2.0000     -14.158414      -385.2700
   8   2.0000     -14.158128      -385.2622
   9   2.0000     -14.157956      -385.2576
  10   2.0000     -14.157749      -385.2519
  11   2.0000     -14.157691      -385.2504
  12   2.0000     -14.157442      -385.2436
  13   2.0000     -14.156968      -385.2307
  14   2.0000     -14.156935      -385.2298
  15   2.0000     -14.156865      -385.2279
  16   2.0000     -14.156844      -385.2273
  17   2.0000     -14.156815      -385.2265
  18   2.0000     -14.156618      -385.2212
  19   2.0000     -14.156003      -385.2044
  20   2.0000     -10.098735      -274.8006
  21   2.0000     -10.097776      -274.7744
  22   2.0000     -10.097722      -274.7730
  23   2.0000     -10.096299      -274.7343
  24   2.0000     -10.085540      -274.4415
  25   2.0000     -10.085307      -274.4351
  26   2.0000     -10.083618      -274.3892
  27   2.0000     -10.082877      -274.3690
  28   2.0000     -10.082494      -274.3586
  29   2.0000     -10.082270      -274.3525
  30   2.0000     -10.082081      -274.3474
  31   2.0000     -10.081832      -274.3406
  32   2.0000     -10.081626      -274.3350
  33   2.0000     -10.081595      -274.3341
  34   2.0000     -10.081466      -274.3306
  35   2.0000     -10.081146      -274.3219
  36   2.0000     -10.081030      -274.3188
  37   2.0000     -10.080977      -274.3173
  38   2.0000     -10.080879      -274.3147
  39   2.0000     -10.079961      -274.2897
  40   2.0000     -10.062954      -273.8269
  41   2.0000     -10.062886      -273.8251
  42   2.0000     -10.061607      -273.7902
  43   2.0000     -10.059262      -273.7264
  44   2.0000     -10.058513      -273.7061
  45   2.0000     -10.058426      -273.7037
  46   2.0000     -10.057943      -273.6905
  47   2.0000     -10.057916      -273.6898
  48   2.0000     -10.057912      -273.6897
  49   2.0000     -10.056869      -273.6613
  50   2.0000     -10.056711      -273.6570
  51   2.0000     -10.055891      -273.6347
  52   2.0000     -10.055724      -273.6302
  53   2.0000     -10.055617      -273.6272
  54   2.0000     -10.054181      -273.5882
  55   2.0000     -10.053065      -273.5578
  56   2.0000     -10.053042      -273.5572
  57   2.0000     -10.050085      -273.4767
  58   2.0000     -10.049846      -273.4702
  59   2.0000     -10.049280      -273.4548
  60   2.0000      -1.853038       -50.4237
  61   2.0000      -0.900106       -24.4931
  62   2.0000      -0.899447       -24.4752
  63   2.0000      -0.898696       -24.4548
  64   2.0000      -0.897032       -24.4095
  65   2.0000      -0.888569       -24.1792
  66   2.0000      -0.888363       -24.1736
  67   2.0000      -0.886600       -24.1256
  68   2.0000      -0.885654       -24.0999
  69   2.0000      -0.885476       -24.0950
  70   2.0000      -0.885421       -24.0935
  71   2.0000      -0.884977       -24.0814
  72   2.0000      -0.884797       -24.0766
  73   2.0000      -0.884670       -24.0731
  74   2.0000      -0.884500       -24.0685
  75   2.0000      -0.884239       -24.0614
  76   2.0000      -0.884061       -24.0565
  77   2.0000      -0.883970       -24.0541
  78   2.0000      -0.883932       -24.0530
  79   2.0000      -0.883706       -24.0469
  80   2.0000      -0.883074       -24.0297
  81   2.0000      -0.741596       -20.1799
  82   2.0000      -0.741239       -20.1701
  83   2.0000      -0.741076       -20.1657
  84   2.0000      -0.740155       -20.1407
  85   2.0000      -0.737960       -20.0809
  86   2.0000      -0.737821       -20.0771
  87   2.0000      -0.736306       -20.0359
  88   2.0000      -0.736282       -20.0352
  89   2.0000      -0.735151       -20.0045
  90   2.0000      -0.735054       -20.0018
  91   2.0000      -0.734100       -19.9759
  92   2.0000      -0.733552       -19.9610
  93   2.0000      -0.733451       -19.9582
  94   2.0000      -0.733385       -19.9564
  95   2.0000      -0.733282       -19.9536
  96   2.0000      -0.732315       -19.9273
  97   2.0000      -0.732072       -19.9207
  98   2.0000      -0.731602       -19.9079
  99   2.0000      -0.730789       -19.8858
 100   2.0000      -0.730483       -19.8775
 101   2.0000      -0.481819       -13.1110
 102   2.0000      -0.479961       -13.0604
 103   2.0000      -0.479385       -13.0447
 104   2.0000      -0.478611       -13.0237
 105   2.0000      -0.476784       -12.9739
 106   2.0000      -0.475656       -12.9433
 107   2.0000      -0.475455       -12.9378
 108   2.0000      -0.474804       -12.9201
 109   2.0000      -0.474560       -12.9134
 110   2.0000      -0.473132       -12.8746
 111   2.0000      -0.472875       -12.8676
 112   2.0000      -0.472475       -12.8567
 113   2.0000      -0.472414       -12.8550
 114   2.0000      -0.470799       -12.8111
 115   2.0000      -0.470016       -12.7898
 116   2.0000      -0.469484       -12.7753
 117   2.0000      -0.468946       -12.7607
 118   2.0000      -0.468321       -12.7437
 119   2.0000      -0.466314       -12.6890
 120   2.0000      -0.465651       -12.6710
 121   2.0000      -0.433952       -11.8084
 122   2.0000      -0.432918       -11.7803
 123   2.0000      -0.431057       -11.7297
 124   2.0000      -0.430402       -11.7118
 125   2.0000      -0.429376       -11.6839
 126   2.0000      -0.428170       -11.6511
 127   2.0000      -0.426471       -11.6049
 128   2.0000      -0.425232       -11.5712
 129   2.0000      -0.424543       -11.5524
 130   2.0000      -0.424494       -11.5511
 131   2.0000      -0.423951       -11.5363
 132   2.0000      -0.423489       -11.5237
 133   2.0000      -0.422868       -11.5068
 134   2.0000      -0.422647       -11.5008
 135   2.0000      -0.422342       -11.4925
 136   2.0000      -0.421930       -11.4813
 137   2.0000      -0.421675       -11.4744
 138   2.0000      -0.421068       -11.4578
 139   2.0000      -0.421007       -11.4562
 140   2.0000      -0.420794       -11.4504
 141   2.0000      -0.420475       -11.4417
 142   2.0000      -0.420038       -11.4298
 143   2.0000      -0.419143       -11.4055
 144   2.0000      -0.418911       -11.3992
 145   2.0000      -0.418686       -11.3930
 146   2.0000      -0.418545       -11.3892
 147   2.0000      -0.418056       -11.3759
 148   2.0000      -0.417976       -11.3737
 149   2.0000      -0.417847       -11.3702
 150   2.0000      -0.417568       -11.3626
 151   2.0000      -0.417124       -11.3505
 152   2.0000      -0.416989       -11.3468
 153   2.0000      -0.416634       -11.3372
 154   2.0000      -0.416547       -11.3348
 155   2.0000      -0.415641       -11.3102
 156   2.0000      -0.415328       -11.3016
 157   2.0000      -0.414792       -11.2871
 158   2.0000      -0.414171       -11.2702
 159   2.0000      -0.413110       -11.2413
 160   2.0000      -0.411981       -11.2106
 161   2.0000      -0.390590       -10.6285
 162   2.0000      -0.375147       -10.2083
 163   2.0000      -0.374507       -10.1909
 164   2.0000      -0.371763       -10.1162
 165   2.0000      -0.351022        -9.5518
 166   2.0000      -0.350484        -9.5372
 167   2.0000      -0.349779        -9.5180
 168   2.0000      -0.349485        -9.5100
 169   2.0000      -0.348822        -9.4919
 170   2.0000      -0.347827        -9.4649
 171   2.0000      -0.347180        -9.4472
 172   2.0000      -0.346592        -9.4312
 173   2.0000      -0.346109        -9.4181
 174   2.0000      -0.345307        -9.3963
 175   2.0000      -0.344430        -9.3724
 176   2.0000      -0.344101        -9.3635
 177   2.0000      -0.343628        -9.3506
 178   2.0000      -0.342955        -9.3323
 179   2.0000      -0.342620        -9.3232
 180   2.0000      -0.340962        -9.2781
 181   2.0000      -0.327925        -8.9233
 182   2.0000      -0.324677        -8.8349
 183   2.0000      -0.322783        -8.7834
 184   2.0000      -0.322699        -8.7811
 185   2.0000      -0.320541        -8.7224
 186   2.0000      -0.318015        -8.6536
 187   2.0000      -0.317083        -8.6283
 188   2.0000      -0.316755        -8.6193
 189   2.0000      -0.314846        -8.5674
 190   2.0000      -0.314133        -8.5480
 191   2.0000      -0.313946        -8.5429
 192   2.0000      -0.313767        -8.5380
 193   2.0000      -0.313338        -8.5264
 194   2.0000      -0.312865        -8.5135
 195   2.0000      -0.312168        -8.4945
 196   2.0000      -0.311599        -8.4791
 197   2.0000      -0.310938        -8.4610
 198   2.0000      -0.310611        -8.4522
 199   2.0000      -0.310267        -8.4428
 200   2.0000      -0.310055        -8.4370
 201   2.0000      -0.309931        -8.4337
 202   2.0000      -0.309702        -8.4274
 203   2.0000      -0.309359        -8.4181
 204   2.0000      -0.309170        -8.4129
 205   2.0000      -0.309054        -8.4098
 206   2.0000      -0.308830        -8.4037
 207   2.0000      -0.308465        -8.3938
 208   2.0000      -0.308176        -8.3859
 209   2.0000      -0.307347        -8.3633
 210   2.0000      -0.307130        -8.3574
 211   2.0000      -0.304976        -8.2988
 212   2.0000      -0.304460        -8.2848
 213   2.0000      -0.304152        -8.2764
 214   2.0000      -0.303839        -8.2679
 215   2.0000      -0.302459        -8.2303
 216   2.0000      -0.301155        -8.1948
 217   2.0000      -0.298865        -8.1325
 218   2.0000      -0.297542        -8.0965
 219   2.0000      -0.296378        -8.0649
 220   2.0000      -0.295412        -8.0386
 221   0.0000      -0.023897        -0.6503
 222   0.0000      -0.019373        -0.5272
 223   0.0000      -0.016424        -0.4469
 224   0.0000      -0.014401        -0.3919
 225   0.0000      -0.011413        -0.3106

MULLIKEN ATOMIC CHARGES
-----------------------
   0 Li:    0.872349
   1 C :   -0.599429
   2 C :    0.352743
   3 N :   -0.400967
   4 H :    0.217383
   5 H :    0.221294
   6 H :    0.213215
   7 C :   -0.658328
   8 C :    0.420203
   9 N :   -0.421294
  10 H :    0.230098
  11 H :    0.229294
  12 H :    0.219538
  13 C :   -0.672484
  14 C :    0.442508
  15 N :   -0.425748
  16 H :    0.240008
  17 H :    0.217736
  18 H :    0.224706
  19 C :   -0.678719
  20 C :    0.388358
  21 N :   -0.393620
  22 H :    0.223186
  23 H :    0.223480
  24 H :    0.229485
  25 C :   -0.650261
  26 C :    0.410245
  27 N :   -0.419395
  28 H :    0.233175
  29 H :    0.218822
  30 H :    0.227116
  31 C :   -0.587407
  32 C :    0.310914
  33 N :   -0.376329
  34 H :    0.209829
  35 H :    0.229709
  36 H :    0.210232
  37 C :   -0.607729
  38 C :    0.342938
  39 N :   -0.400418
  40 H :    0.210181
  41 H :    0.221442
  42 H :    0.231664
  43 C :   -0.620230
  44 C :    0.382143
  45 N :   -0.438005
  46 H :    0.243694
  47 H :    0.215699
  48 H :    0.218240
  49 C :   -0.584255
  50 C :    0.310186
  51 N :   -0.376317
  52 H :    0.231295
  53 H :    0.211219
  54 H :    0.211612
  55 C :   -0.572210
  56 C :    0.299769
  57 N :   -0.374649
  58 H :    0.222755
  59 H :    0.213833
  60 H :    0.212370
  61 C :   -0.610542
  62 C :    0.335976
  63 N :   -0.392503
  64 H :    0.227774
  65 H :    0.211160
  66 H :    0.227242
  67 C :   -0.582597
  68 C :    0.312154
  69 N :   -0.371774
  70 H :    0.211473
  71 H :    0.222067
  72 H :    0.211205
  73 C :   -0.597407
  74 C :    0.346827
  75 N :   -0.387845
  76 H :    0.213378
  77 H :    0.212014
  78 H :    0.223427
  79 C :   -0.590676
  80 C :    0.317768
  81 N :   -0.375712
  82 H :    0.227950
  83 H :    0.210641
  84 H :    0.211067
  85 C :   -0.619322
  86 C :    0.356677
  87 N :   -0.398086
  88 H :    0.225018
  89 H :    0.227136
  90 H :    0.209894
  91 C :   -0.593544
  92 C :    0.340622
  93 N :   -0.386739
  94 H :    0.217024
  95 H :    0.214435
  96 H :    0.215225
  97 C :   -0.589111
  98 C :    0.316127
  99 N :   -0.372364
 100 H :    0.225990
 101 H :    0.211163
 102 H :    0.210946
 103 C :   -0.617781
 104 C :    0.345443
 105 N :   -0.398090
 106 H :    0.233940
 107 H :    0.209546
 108 H :    0.225156
 109 C :   -0.575397
 110 C :    0.337894
 111 N :   -0.382253
 112 H :    0.213388
 113 H :    0.213400
 114 H :    0.213601
 115 C :   -0.575774
 116 C :    0.337356
 117 N :   -0.381617
 118 H :    0.213510
 119 H :    0.213627
 120 H :    0.213019
Sum of atomic charges:    1.0000000

LOEWDIN ATOMIC CHARGES
----------------------
   0 Li:    0.186811
   1 C :   -0.351018
   2 C :    0.167699
   3 N :   -0.423714
   4 H :    0.208543
   5 H :    0.212522
   6 H :    0.207121
   7 C :   -0.352695
   8 C :    0.230475
   9 N :   -0.325895
  10 H :    0.220017
  11 H :    0.212063
  12 H :    0.206339
  13 C :   -0.350391
  14 C :    0.230306
  15 N :   -0.322108
  16 H :    0.218839
  17 H :    0.204971
  18 H :    0.210896
  19 C :   -0.360889
  20 C :    0.169493
  21 N :   -0.432859
  22 H :    0.207994
  23 H :    0.212321
  24 H :    0.213332
  25 C :   -0.355286
  26 C :    0.227928
  27 N :   -0.327343
  28 H :    0.220104
  29 H :    0.206104
  30 H :    0.211314
  31 C :   -0.362508
  32 C :    0.161487
  33 N :   -0.420077
  34 H :    0.199773
  35 H :    0.216170
  36 H :    0.200136
  37 C :   -0.368955
  38 C :    0.170327
  39 N :   -0.438723
  40 H :    0.200481
  41 H :    0.214403
  42 H :    0.215378
  43 C :   -0.354243
  44 C :    0.231853
  45 N :   -0.331682
  46 H :    0.225045
  47 H :    0.205237
  48 H :    0.205363
  49 C :   -0.362337
  50 C :    0.157234
  51 N :   -0.416274
  52 H :    0.216692
  53 H :    0.200940
  54 H :    0.200625
  55 C :   -0.354610
  56 C :    0.163369
  57 N :   -0.416778
  58 H :    0.214499
  59 H :    0.208767
  60 H :    0.201704
  61 C :   -0.369251
  62 C :    0.172632
  63 N :   -0.438192
  64 H :    0.215484
  65 H :    0.200629
  66 H :    0.216026
  67 C :   -0.357828
  68 C :    0.160948
  69 N :   -0.411106
  70 H :    0.200793
  71 H :    0.214833
  72 H :    0.200750
  73 C :   -0.355745
  74 C :    0.168281
  75 N :   -0.425056
  76 H :    0.202040
  77 H :    0.201231
  78 H :    0.215271
  79 C :   -0.359766
  80 C :    0.161638
  81 N :   -0.416973
  82 H :    0.215847
  83 H :    0.199948
  84 H :    0.200198
  85 C :   -0.362231
  86 C :    0.163543
  87 N :   -0.427527
  88 H :    0.213979
  89 H :    0.214765
  90 H :    0.199772
  91 C :   -0.348900
  92 C :    0.160026
  93 N :   -0.406813
  94 H :    0.203485
  95 H :    0.201839
  96 H :    0.207203
  97 C :   -0.359436
  98 C :    0.162021
  99 N :   -0.413940
 100 H :    0.215842
 101 H :    0.200493
 102 H :    0.200532
 103 C :   -0.369331
 104 C :    0.171728
 105 N :   -0.442299
 106 H :    0.216536
 107 H :    0.199621
 108 H :    0.215567
 109 C :   -0.349966
 110 C :    0.172231
 111 N :   -0.426098
 112 H :    0.202025
 113 H :    0.202106
 114 H :    0.202041
 115 C :   -0.350041
 116 C :    0.171864
 117 N :   -0.425485
 118 H :    0.201988
 119 H :    0.202020
 120 H :    0.201914

  Mayer bond orders larger than 0.100000
B(  1-C ,  2-C ) :   0.9818 B(  1-C ,  4-H ) :   0.9261 B(  1-C ,  5-H ) :   0.9302
B(  1-C ,  6-H ) :   0.9369 B(  2-C ,  3-N ) :   2.7446 B(  7-C ,  8-C ) :   0.9601
B(  7-C , 10-H ) :   0.9166 B(  7-C , 11-H ) :   0.9278 B(  7-C , 12-H ) :   0.9409
B(  8-C ,  9-N ) :   2.6141 B( 13-C , 14-C ) :   0.9182 B( 13-C , 16-H ) :   0.9246
B( 13-C , 17-H ) :   0.9307 B( 13-C , 18-H ) :   0.9402 B( 14-C , 15-N ) :   2.6164
B( 19-C , 20-C ) :   0.8977 B( 19-C , 22-H ) :   0.9421 B( 19-C , 23-H ) :   0.9250
B( 19-C , 24-H ) :   0.9281 B( 20-C , 21-N ) :   2.7816 B( 25-C , 26-C ) :   0.9548
B( 25-C , 28-H ) :   0.9158 B( 25-C , 29-H ) :   0.9457 B( 25-C , 30-H ) :   0.9258
B( 26-C , 27-N ) :   2.6531 B( 31-C , 32-C ) :   0.9693 B( 31-C , 34-H ) :   0.9434
B( 31-C , 35-H ) :   0.9212 B( 31-C , 36-H ) :   0.9436 B( 32-C , 33-N ) :   2.8100
B( 37-C , 38-C ) :   0.9769 B( 37-C , 40-H ) :   0.9439 B( 37-C , 41-H ) :   0.9232
B( 37-C , 42-H ) :   0.9225 B( 38-C , 39-N ) :   2.7238 B( 43-C , 44-C ) :   0.9700
B( 43-C , 46-H ) :   0.9085 B( 43-C , 47-H ) :   0.9378 B( 43-C , 48-H ) :   0.9414
B( 44-C , 45-N ) :   2.6263 B( 49-C , 50-C ) :   0.9653 B( 49-C , 52-H ) :   0.9192
B( 49-C , 53-H ) :   0.9410 B( 49-C , 54-H ) :   0.9436 B( 50-C , 51-N ) :   2.7814
B( 55-C , 56-C ) :   0.9937 B( 55-C , 58-H ) :   0.9237 B( 55-C , 59-H ) :   0.9295
B( 55-C , 60-H ) :   0.9382 B( 56-C , 57-N ) :   2.8003 B( 61-C , 62-C ) :   0.9693
B( 61-C , 64-H ) :   0.9241 B( 61-C , 65-H ) :   0.9453 B( 61-C , 66-H ) :   0.9191
B( 62-C , 63-N ) :   2.7258 B( 67-C , 68-C ) :   0.9664 B( 67-C , 70-H ) :   0.9419
B( 67-C , 71-H ) :   0.9211 B( 67-C , 72-H ) :   0.9414 B( 68-C , 69-N ) :   2.7860
B( 73-C , 74-C ) :   0.9607 B( 73-C , 76-H ) :   0.9423 B( 73-C , 77-H ) :   0.9401
B( 73-C , 78-H ) :   0.9205 B( 74-C , 75-N ) :   2.7337 B( 79-C , 80-C ) :   0.9661
B( 79-C , 82-H ) :   0.9158 B( 79-C , 83-H ) :   0.9437 B( 79-C , 84-H ) :   0.9442
B( 80-C , 81-N ) :   2.8097 B( 85-C , 86-C ) :   0.9551 B( 85-C , 88-H ) :   0.9262
B( 85-C , 89-H ) :   0.9235 B( 85-C , 90-H ) :   0.9426 B( 86-C , 87-N ) :   2.7794
B( 91-C , 92-C ) :   0.9586 B( 91-C , 94-H ) :   0.9437 B( 91-C , 95-H ) :   0.9418
B( 91-C , 96-H ) :   0.9273 B( 92-C , 93-N ) :   2.8119 B( 97-C , 98-C ) :   0.9627
B( 97-C ,100-H ) :   0.9183 B( 97-C ,101-H ) :   0.9417 B( 97-C ,102-H ) :   0.9433
B( 98-C , 99-N ) :   2.7871 B(103-C ,104-C ) :   0.9653 B(103-C ,106-H ) :   0.9224
B(103-C ,107-H ) :   0.9457 B(103-C ,108-H ) :   0.9208 B(104-C ,105-N ) :   2.7337
B(109-C ,110-C ) :   0.9692 B(109-C ,112-H ) :   0.9401 B(109-C ,113-H ) :   0.9394
B(109-C ,114-H ) :   0.9405 B(110-C ,111-N ) :   2.7418 B(115-C ,116-C ) :   0.9683
B(115-C ,118-H ) :   0.9398 B(115-C ,119-H ) :   0.9403 B(115-C ,120-H ) :   0.9403
B(116-C ,117-N ) :   2.7485

Dispersion correction           -0.044608927
FINAL SINGLE POINT ENERGY     -2662.044058311958

DIPOLE MOMENT
-------------
                                X             Y             Z
Electronic contribution:     -5.94555      -7.32168       4.91380
Nuclear contribution   :      0.90223       5.48670      -4.91919
                        -----------------------------------------
Total Dipole Moment    :     -5.04332      -1.83498      -0.00539
                        -----------------------------------------
Magnitude (a.u.)       :      5.36677
Magnitude (Debye)      :     13.64126

Rotational constants in cm-1:     0.001027     0.000802     0.000735
Rotational constants in MHz :    30.779288    24.041126    22.022124

                             ****ORCA TERMINATED NORMALLY****
TOTAL RUN TIME: 0 days 0 hours 6 minutes 21 seconds 377 msec
