                         Program Version 5.0.4 -  RELEASE  -
|  1> ! r2SCAN-3c ENERGY TightSCF defgrid3 def2/J
|  2> %maxcore 8000
|  3> %PAL NPROCS 8 END
|  4> %CPCM SMD TRUE
|  5>       SMDSOLVENT "MeCN"
|  6> END
|  7> *xyzfile 2 1  xtbopt.xyz
|  8>
|  9>                          ****END OF INPUT****

CARTESIAN COORDINATES (ANGSTROEM)
---------------------------------
  Mg     0.237989    0.385690   -1.506312
  C     -7.875386   -2.707438    0.136121
  C     -6.597465   -2.067713    0.174116
  N     -5.573336   -1.556544    0.202861
  H     -7.784038   -3.728441    0.505460
  H     -8.246533   -2.724483   -0.888167
  H     -8.576013   -2.158280    0.764483
  C      2.281438    4.073785    0.356037
  C      1.655413    2.953214   -0.245882
  N      1.154996    2.049692   -0.738775
  H      2.751809    4.690181   -0.409433
  H      3.037038    3.737716    1.065279
  H      1.535115    4.671851    0.885951
  C     -0.813296    7.840981    3.355685
  C     -0.219247    6.812119    2.561341
  N      0.256022    5.987406    1.925082
  H     -1.605585    7.416408    3.971341
  H     -1.231392    8.608777    2.705372
  H     -0.055254    8.286924    3.999047
  C      2.588342   -2.063114    1.609408
  C      1.853023   -1.364179    0.618807
  N      1.265132   -0.801974   -0.186101
  H      3.640675   -2.108696    1.315656
  H      2.202278   -3.076647    1.712034
  H      2.503339   -1.544835    2.563873
  C     -2.101268   -3.302933   -2.991533
  C     -1.314891   -2.179171   -2.614103
  N     -0.677913   -1.277076   -2.318751
  H     -3.040537   -2.961636   -3.426462
  H     -2.313629   -3.911169   -2.112385
  H     -1.561276   -3.902803   -3.724193
  C     -3.290333    0.417503    1.428666
  C     -2.195776    0.492162    0.536286
  N     -1.313226    0.551971   -0.191323
  H     -3.749834    1.398726    1.538323
  H     -2.945255    0.071732    2.405498
  H     -4.029634   -0.285965    1.038632
  C      8.177709   -2.887631    0.729773
  C      6.788640   -2.552569    0.736511
  N      5.675611   -2.283590    0.739358
  H      8.306346   -3.913207    1.074832
  H      8.718914   -2.213386    1.392954
  H      8.572569   -2.794858   -0.281465
  C     -2.512752   -1.041237    6.931801
  C     -2.433787   -0.718194    5.541036
  N     -2.371562   -0.461168    4.427160
  H     -1.508919   -1.134634    7.344652
  H     -3.044509   -1.983980    7.057240
  H     -3.048053   -0.252149    7.459076
  C      3.914002   -0.336730   -4.194973
  C      2.733884   -0.064890   -3.447950
  N      1.783336    0.156612   -2.853012
  H      3.690920   -1.048208   -4.990032
  H      4.671873   -0.759577   -3.535500
  H      4.292718    0.585967   -4.634581
  C     -2.145682    3.294147   -4.169444
  C     -1.377466    2.345860   -3.438133
  N     -0.759604    1.580215   -2.856095
  H     -3.180604    2.957805   -4.232144
  H     -1.740629    3.400768   -5.175780
  H     -2.111295    4.259092   -3.663478

 Total Charge           Charge          ....    2
 Multiplicity           Mult            ....    1
 Number of Electrons    NEL             ....  230
 Basis Dimension        Dim             ....  784

ORBITAL ENERGIES
----------------

  NO   OCC          E(Eh)            E(eV)
   0   2.0000     -46.508597     -1265.5633
   1   2.0000     -14.181217      -385.8905
   2   2.0000     -14.181037      -385.8856
   3   2.0000     -14.180627      -385.8745
   4   2.0000     -14.179584      -385.8461
   5   2.0000     -14.179351      -385.8397
   6   2.0000     -14.177701      -385.7949
   7   2.0000     -14.161810      -385.3624
   8   2.0000     -14.161516      -385.3544
   9   2.0000     -14.161467      -385.3531
  10   2.0000     -14.161139      -385.3442
  11   2.0000     -10.111782      -275.1556
  12   2.0000     -10.111444      -275.1464
  13   2.0000     -10.111082      -275.1365
  14   2.0000     -10.110484      -275.1203
  15   2.0000     -10.110331      -275.1161
  16   2.0000     -10.109124      -275.0832
  17   2.0000     -10.086265      -274.4612
  18   2.0000     -10.086062      -274.4557
  19   2.0000     -10.085706      -274.4460
  20   2.0000     -10.085441      -274.4388
  21   2.0000     -10.071156      -274.0501
  22   2.0000     -10.070898      -274.0431
  23   2.0000     -10.070876      -274.0425
  24   2.0000     -10.064196      -273.8607
  25   2.0000     -10.064090      -273.8578
  26   2.0000     -10.064037      -273.8564
  27   2.0000     -10.063928      -273.8534
  28   2.0000     -10.062615      -273.8177
  29   2.0000     -10.062082      -273.8032
  30   2.0000     -10.055882      -273.6345
  31   2.0000      -2.997371       -81.5626
  32   2.0000      -1.728209       -47.0270
  33   2.0000      -1.728094       -47.0238
  34   2.0000      -1.727959       -47.0202
  35   2.0000      -0.916311       -24.9341
  36   2.0000      -0.912111       -24.8198
  37   2.0000      -0.911857       -24.8129
  38   2.0000      -0.910856       -24.7856
  39   2.0000      -0.909294       -24.7431
  40   2.0000      -0.908176       -24.7127
  41   2.0000      -0.889308       -24.1993
  42   2.0000      -0.889151       -24.1950
  43   2.0000      -0.888888       -24.1879
  44   2.0000      -0.888652       -24.1814
  45   2.0000      -0.750756       -20.4291
  46   2.0000      -0.750123       -20.4119
  47   2.0000      -0.749904       -20.4059
  48   2.0000      -0.747073       -20.3289
  49   2.0000      -0.746526       -20.3140
  50   2.0000      -0.744054       -20.2467
  51   2.0000      -0.738937       -20.1075
  52   2.0000      -0.738723       -20.1017
  53   2.0000      -0.738584       -20.0979
  54   2.0000      -0.738273       -20.0894
  55   2.0000      -0.511521       -13.9192
  56   2.0000      -0.491106       -13.3637
  57   2.0000      -0.490898       -13.3580
  58   2.0000      -0.490183       -13.3386
  59   2.0000      -0.486948       -13.2505
  60   2.0000      -0.485851       -13.2207
  61   2.0000      -0.476991       -12.9796
  62   2.0000      -0.476881       -12.9766
  63   2.0000      -0.476412       -12.9638
  64   2.0000      -0.475511       -12.9393
  65   2.0000      -0.454471       -12.3668
  66   2.0000      -0.435340       -11.8462
  67   2.0000      -0.434454       -11.8221
  68   2.0000      -0.434078       -11.8119
  69   2.0000      -0.433869       -11.8062
  70   2.0000      -0.433590       -11.7986
  71   2.0000      -0.432934       -11.7807
  72   2.0000      -0.431516       -11.7421
  73   2.0000      -0.430868       -11.7245
  74   2.0000      -0.430776       -11.7220
  75   2.0000      -0.429628       -11.6908
  76   2.0000      -0.428506       -11.6602
  77   2.0000      -0.428103       -11.6493
  78   2.0000      -0.422782       -11.5045
  79   2.0000      -0.422658       -11.5011
  80   2.0000      -0.422644       -11.5007
  81   2.0000      -0.422548       -11.4981
  82   2.0000      -0.422489       -11.4965
  83   2.0000      -0.422300       -11.4914
  84   2.0000      -0.422252       -11.4901
  85   2.0000      -0.422157       -11.4875
  86   2.0000      -0.412496       -11.2246
  87   2.0000      -0.411647       -11.2015
  88   2.0000      -0.410633       -11.1739
  89   2.0000      -0.381272       -10.3749
  90   2.0000      -0.380780       -10.3615
  91   2.0000      -0.358422        -9.7532
  92   2.0000      -0.356579        -9.7030
  93   2.0000      -0.353205        -9.6112
  94   2.0000      -0.351324        -9.5600
  95   2.0000      -0.345249        -9.3947
  96   2.0000      -0.340584        -9.2678
  97   2.0000      -0.338800        -9.2192
  98   2.0000      -0.329907        -8.9772
  99   2.0000      -0.329575        -8.9682
 100   2.0000      -0.328354        -8.9350
 101   2.0000      -0.328008        -8.9256
 102   2.0000      -0.324121        -8.8198
 103   2.0000      -0.321438        -8.7468
 104   2.0000      -0.319790        -8.7019
 105   2.0000      -0.317074        -8.6280
 106   2.0000      -0.316747        -8.6191
 107   2.0000      -0.314795        -8.5660
 108   2.0000      -0.314669        -8.5626
 109   2.0000      -0.314500        -8.5580
 110   2.0000      -0.314290        -8.5523
 111   2.0000      -0.313903        -8.5417
 112   2.0000      -0.313680        -8.5357
 113   2.0000      -0.312244        -8.4966
 114   2.0000      -0.309448        -8.4205
 115   0.0000      -0.035907        -0.9771
 116   0.0000      -0.035250        -0.9592
 117   0.0000      -0.035057        -0.9539
 118   0.0000      -0.022472        -0.6115
 119   0.0000      -0.020463        -0.5568

MULLIKEN ATOMIC CHARGES
-----------------------
   0 Mg:    1.396890
   1 C :   -0.571024
   2 C :    0.319794
   3 N :   -0.371974
   4 H :    0.213179
   5 H :    0.212828
   6 H :    0.212850
   7 C :   -0.603761
   8 C :    0.325273
   9 N :   -0.328326
  10 H :    0.218802
  11 H :    0.218739
  12 H :    0.243452
  13 C :   -0.568757
  14 C :    0.312681
  15 N :   -0.365603
  16 H :    0.213062
  17 H :    0.213273
  18 H :    0.212885
  19 C :   -0.607075
  20 C :    0.331054
  21 N :   -0.326498
  22 H :    0.242048
  23 H :    0.219174
  24 H :    0.219027
  25 C :   -0.587702
  26 C :    0.324038
  27 N :   -0.295426
  28 H :    0.221946
  29 H :    0.221783
  30 H :    0.221438
  31 C :   -0.626425
  32 C :    0.328365
  33 N :   -0.329261
  34 H :    0.218262
  35 H :    0.237780
  36 H :    0.236428
  37 C :   -0.568981
  38 C :    0.314598
  39 N :   -0.368078
  40 H :    0.213205
  41 H :    0.213164
  42 H :    0.213026
  43 C :   -0.569342
  44 C :    0.313229
  45 N :   -0.367035
  46 H :    0.212830
  47 H :    0.212954
  48 H :    0.212805
  49 C :   -0.584189
  50 C :    0.318957
  51 N :   -0.291478
  52 H :    0.221494
  53 H :    0.221156
  54 H :    0.221295
  55 C :   -0.583395
  56 C :    0.322670
  57 N :   -0.296874
  58 H :    0.221581
  59 H :    0.221476
  60 H :    0.221714
Sum of atomic charges:    2.0000000

LOEWDIN ATOMIC CHARGES
----------------------
   0 Mg:    1.335751
   1 C :   -0.351029
   2 C :    0.165120
   3 N :   -0.412346
   4 H :    0.201630
   5 H :    0.201563
   6 H :    0.201546
   7 C :   -0.352935
   8 C :    0.245509
   9 N :   -0.429872
  10 H :    0.207540
  11 H :    0.207290
  12 H :    0.227201
  13 C :   -0.350850
  14 C :    0.166803
  15 N :   -0.411973
  16 H :    0.201711
  17 H :    0.201787
  18 H :    0.201685
  19 C :   -0.352160
  20 C :    0.245662
  21 N :   -0.428754
  22 H :    0.226513
  23 H :    0.207599
  24 H :    0.207298
  25 C :   -0.340220
  26 C :    0.244314
  27 N :   -0.422707
  28 H :    0.208504
  29 H :    0.208439
  30 H :    0.208770
  31 C :   -0.362102
  32 C :    0.246575
  33 N :   -0.435202
  34 H :    0.207061
  35 H :    0.224095
  36 H :    0.224191
  37 C :   -0.350890
  38 C :    0.166471
  39 N :   -0.412485
  40 H :    0.201816
  41 H :    0.201766
  42 H :    0.201739
  43 C :   -0.351122
  44 C :    0.164836
  45 N :   -0.411069
  46 H :    0.201447
  47 H :    0.201553
  48 H :    0.201477
  49 C :   -0.339986
  50 C :    0.243689
  51 N :   -0.424491
  52 H :    0.208426
  53 H :    0.208214
  54 H :    0.208467
  55 C :   -0.339951
  56 C :    0.244239
  57 N :   -0.423915
  58 H :    0.208520
  59 H :    0.208733
  60 H :    0.208508

  Mayer bond orders larger than 0.100000
B(  0-Mg,  9-N ) :   0.1158 B(  0-Mg, 21-N ) :   0.1193 B(  0-Mg, 27-N ) :   0.1601
B(  0-Mg, 33-N ) :   0.1167 B(  0-Mg, 51-N ) :   0.1695 B(  0-Mg, 57-N ) :   0.1687
B(  1-C ,  2-C ) :   0.9694 B(  1-C ,  4-H ) :   0.9400 B(  1-C ,  5-H ) :   0.9397
B(  1-C ,  6-H ) :   0.9396 B(  2-C ,  3-N ) :   2.7876 B(  7-C ,  8-C ) :   0.9943
B(  7-C , 10-H ) :   0.9365 B(  7-C , 11-H ) :   0.9374 B(  7-C , 12-H ) :   0.9088
B(  8-C ,  9-N ) :   2.3912 B( 13-C , 14-C ) :   0.9706 B( 13-C , 16-H ) :   0.9392
B( 13-C , 17-H ) :   0.9394 B( 13-C , 18-H ) :   0.9396 B( 14-C , 15-N ) :   2.7813
B( 19-C , 20-C ) :   0.9914 B( 19-C , 22-H ) :   0.9069 B( 19-C , 23-H ) :   0.9373
B( 19-C , 24-H ) :   0.9381 B( 20-C , 21-N ) :   2.4069 B( 25-C , 26-C ) :   0.9853
B( 25-C , 28-H ) :   0.9349 B( 25-C , 29-H ) :   0.9350 B( 25-C , 30-H ) :   0.9343
B( 26-C , 27-N ) :   2.4729 B( 31-C , 32-C ) :   0.9928 B( 31-C , 34-H ) :   0.9400
B( 31-C , 35-H ) :   0.9146 B( 31-C , 36-H ) :   0.9117 B( 32-C , 33-N ) :   2.4107
B( 37-C , 38-C ) :   0.9702 B( 37-C , 40-H ) :   0.9396 B( 37-C , 41-H ) :   0.9395
B( 37-C , 42-H ) :   0.9390 B( 38-C , 39-N ) :   2.7866 B( 43-C , 44-C ) :   0.9699
B( 43-C , 46-H ) :   0.9394 B( 43-C , 47-H ) :   0.9397 B( 43-C , 48-H ) :   0.9399
B( 44-C , 45-N ) :   2.7929 B( 49-C , 50-C ) :   0.9880 B( 49-C , 52-H ) :   0.9348
B( 49-C , 53-H ) :   0.9352 B( 49-C , 54-H ) :   0.9345 B( 50-C , 51-N ) :   2.4761
B( 55-C , 56-C ) :   0.9883 B( 55-C , 58-H ) :   0.9346 B( 55-C , 59-H ) :   0.9339
B( 55-C , 60-H ) :   0.9348 B( 56-C , 57-N ) :   2.4728

Dispersion correction           -0.018258282
FINAL SINGLE POINT ENERGY     -1527.221620330141

DIPOLE MOMENT
-------------
                                X             Y             Z
Electronic contribution:      3.03221       0.73246     -12.99695
Nuclear contribution   :     -2.81697      -1.22141      11.86203
                        -----------------------------------------
Total Dipole Moment    :      0.21524      -0.48894      -1.13491
                        -----------------------------------------
Magnitude (a.u.)       :      1.25436
Magnitude (Debye)      :      3.18833

Rotational constants in cm-1:     0.002563     0.002010     0.001850
Rotational constants in MHz :    76.839301    60.259449    55.463034

                             ****ORCA TERMINATED NORMALLY****
TOTAL RUN TIME: 0 days 0 hours 1 minutes 57 seconds 765 msec
