                         Program Version 5.0.4 -  RELEASE  -
|  1> ! r2SCAN-3c ENERGY TightSCF defgrid3 def2/J
|  2> %maxcore 8000
|  3> %PAL NPROCS 8 END
|  4> %CPCM SMD TRUE
|  5>       SMDSOLVENT "MeCN"
|  6> END
|  7> *xyzfile 2 1  xtbopt.xyz
|  8>
|  9>                          ****END OF INPUT****

CARTESIAN COORDINATES (ANGSTROEM)
---------------------------------
  Mg     0.671589   -1.527731    0.320707
  C     -3.512874    0.029131    0.820675
  C     -2.261013   -0.473445    0.384769
  N     -1.257747   -0.888861    0.021432
  H     -3.370428    0.999745    1.294094
  H     -3.943189   -0.665770    1.546605
  H     -4.191484    0.138664   -0.023931
  C      3.376136   10.041002   -0.444348
  C      3.079004    8.801213    0.207850
  N      2.841384    7.808766    0.726803
  H      4.415098   10.310881   -0.258511
  H      2.723608   10.822493   -0.056837
  H      3.213989    9.935848   -1.516385
  C     -2.116848   -2.156725   -7.806509
  C     -1.089518   -1.937347   -6.842776
  N     -0.273758   -1.768212   -6.055996
  H     -1.720493   -2.727714   -8.645061
  H     -2.496773   -1.200456   -8.163093
  H     -2.925174   -2.718163   -7.333161
  C      0.209335   -0.354905    4.764391
  C      0.338651   -0.773165    3.415391
  N      0.436569   -1.104617    2.324807
  H     -0.791853   -0.585276    5.126388
  H      0.376481    0.723697    4.821285
  H      0.943634   -0.869489    5.382388
  C      5.829257   -9.525314    4.292164
  C      4.812176   -8.545867    4.049610
  N      4.001255   -7.761607    3.855356
  H      5.817664  -10.267802    3.495051
  H      5.643579  -10.016763    5.246579
  H      6.803669   -9.038828    4.319590
  C     -1.051766    0.441925   -3.446615
  C     -0.255522    1.623955   -3.388992
  N      0.391697    2.568850   -3.334149
  H     -2.091611    0.713212   -3.629217
  H     -0.965644   -0.091854   -2.499626
  H     -0.703768   -0.193581   -4.261064
  C      4.920370   -2.633442    1.685945
  C      3.633524   -2.357210    1.157179
  N      2.596030   -2.137513    0.727935
  H      5.114002   -1.957518    2.522629
  H      5.677000   -2.479029    0.917738
  H      4.961092   -3.663521    2.038252
  C      8.780170    1.253080   -3.700139
  C      7.638913    0.667392   -3.062029
  N      6.726003    0.201877   -2.552116
  H      8.780646    2.328996   -3.529144
  H      8.739545    1.057095   -4.771005
  H      9.690985    0.820595   -3.287644
  C      5.799453    1.133525    5.992726
  C      5.564090    0.179823    4.953800
  N      5.370202   -0.583727    4.123255
  H      6.745872    1.642490    5.812763
  H      5.841767    0.622430    6.954028
  H      4.991100    1.863712    6.004777
  C     -5.682770   -3.202278    5.066187
  C     -5.107321   -2.515175    3.952689
  N     -4.643705   -1.965346    3.061991
  H     -6.461723   -3.878668    4.715703
  H     -6.117018   -2.478715    5.755488
  H     -4.909928   -3.773151    5.579643
  C      0.594398   -6.951480    7.521159
  C     -0.093166   -5.887544    6.852562
  N     -0.641520   -5.038111    6.315927
  H      0.512937   -7.863892    6.931678
  H      0.151594   -7.113082    8.503409
  H      1.645187   -6.688099    7.635275
  C     -1.766979   13.894865   -4.028130
  C     -1.169969   12.754455   -3.399438
  N     -0.694516   11.842097   -2.897350
  H     -1.340988   14.805872   -3.609445
  H     -2.842316   13.884470   -3.854085
  H     -1.572375   13.862761   -5.099494
  C     -0.648705   -5.803149    1.361362
  C     -0.288467   -4.491163    0.959439
  N     -0.006684   -3.433739    0.625568
  H     -1.558825   -5.765469    1.958696
  H      0.155047   -6.237121    1.954918
  H     -0.820499   -6.425327    0.479817
  C      2.087795   -2.215831   -3.953344
  C      1.487612   -2.061995   -2.677181
  N      0.979578   -1.936656   -1.659577
  H      2.523940   -3.209984   -4.041082
  H      2.866390   -1.465120   -4.083371
  H      1.328956   -2.084576   -4.729205
  C     -5.995926    2.016927   -6.032524
  C     -5.009048    1.511695   -5.127981
  N     -4.219691    1.105408   -4.405410
  H     -5.508321    2.590269   -6.820307
  H     -6.688945    2.661336   -5.492737
  H     -6.543887    1.185527   -6.474836
  C     -3.960466   -3.968353   -3.255224
  C     -4.068946   -3.888705   -4.678679
  N     -4.151703   -3.822479   -5.819484
  H     -2.910387   -3.922937   -2.970321
  H     -4.393183   -4.906498   -2.910113
  H     -4.497270   -3.133722   -2.807328
  C     -1.621849   -9.556513   -2.959042
  C     -1.402201   -8.552999   -1.964490
  N     -1.228213   -7.746794   -1.170574
  H     -0.868177  -10.337318   -2.861957
  H     -1.553912   -9.108889   -3.950134
  H     -2.611587   -9.992181   -2.825374
  C     -1.660756    7.056914   -1.429627
  C     -1.998016    5.930918   -0.611670
  N     -2.263302    5.029565    0.042357
  H     -2.491120    7.287354   -2.095788
  H     -0.776418    6.823245   -2.020890
  H     -1.456160    7.919576   -0.797003
  C      0.693271    5.397573    4.671958
  C      0.687485    3.969763    4.725082
  N      0.686636    2.825573    4.769217
  H      0.260870    5.798387    5.588259
  H      0.105596    5.731732    3.817778
  H      1.716858    5.755557    4.567365
  C      2.227745    2.701953   -0.690802
  C      1.740475    1.422893   -0.315874
  N      1.342126    0.391088   -0.024570
  H      1.745872    2.993232   -1.628017
  H      3.306423    2.658795   -0.835398
  H      1.990439    3.432076    0.081522

 Total Charge           Charge          ....    2
 Multiplicity           Mult            ....    1
 Number of Electrons    NEL             ....  450
 Basis Dimension        Dim             .... 1554

ORBITAL ENERGIES
----------------

  NO   OCC          E(Eh)            E(eV)
   0   2.0000     -46.508421     -1265.5585
   1   2.0000     -14.179594      -385.8464
   2   2.0000     -14.177993      -385.8028
   3   2.0000     -14.177854      -385.7990
   4   2.0000     -14.177660      -385.7937
   5   2.0000     -14.177558      -385.7910
   6   2.0000     -14.177016      -385.7762
   7   2.0000     -14.161218      -385.3463
   8   2.0000     -14.161148      -385.3444
   9   2.0000     -14.161129      -385.3439
  10   2.0000     -14.161040      -385.3415
  11   2.0000     -14.160876      -385.3370
  12   2.0000     -14.160380      -385.3235
  13   2.0000     -14.159871      -385.3097
  14   2.0000     -14.158920      -385.2838
  15   2.0000     -14.158828      -385.2813
  16   2.0000     -14.158689      -385.2775
  17   2.0000     -14.158434      -385.2706
  18   2.0000     -14.158407      -385.2698
  19   2.0000     -14.158337      -385.2679
  20   2.0000     -14.158202      -385.2643
  21   2.0000     -10.109782      -275.1012
  22   2.0000     -10.109746      -275.1002
  23   2.0000     -10.108984      -275.0794
  24   2.0000     -10.108621      -275.0696
  25   2.0000     -10.108489      -275.0660
  26   2.0000     -10.108465      -275.0653
  27   2.0000     -10.085747      -274.4471
  28   2.0000     -10.085706      -274.4460
  29   2.0000     -10.085642      -274.4443
  30   2.0000     -10.085547      -274.4417
  31   2.0000     -10.085545      -274.4416
  32   2.0000     -10.084162      -274.4040
  33   2.0000     -10.083756      -274.3930
  34   2.0000     -10.082142      -274.3490
  35   2.0000     -10.081946      -274.3437
  36   2.0000     -10.081861      -274.3414
  37   2.0000     -10.081718      -274.3375
  38   2.0000     -10.081477      -274.3309
  39   2.0000     -10.081439      -274.3299
  40   2.0000     -10.081364      -274.3279
  41   2.0000     -10.064726      -273.8751
  42   2.0000     -10.063850      -273.8513
  43   2.0000     -10.063837      -273.8509
  44   2.0000     -10.063744      -273.8484
  45   2.0000     -10.063492      -273.8416
  46   2.0000     -10.063450      -273.8404
  47   2.0000     -10.063186      -273.8332
  48   2.0000     -10.062940      -273.8265
  49   2.0000     -10.062918      -273.8259
  50   2.0000     -10.062808      -273.8229
  51   2.0000     -10.062443      -273.8130
  52   2.0000     -10.062369      -273.8110
  53   2.0000     -10.062236      -273.8074
  54   2.0000     -10.061966      -273.8000
  55   2.0000     -10.061451      -273.7860
  56   2.0000     -10.061322      -273.7825
  57   2.0000     -10.061215      -273.7796
  58   2.0000     -10.061061      -273.7754
  59   2.0000     -10.058606      -273.7086
  60   2.0000     -10.054583      -273.5991
  61   2.0000      -2.997174       -81.5573
  62   2.0000      -1.728104       -47.0241
  63   2.0000      -1.727881       -47.0180
  64   2.0000      -1.727673       -47.0124
  65   2.0000      -0.914799       -24.8929
  66   2.0000      -0.910331       -24.7714
  67   2.0000      -0.909857       -24.7585
  68   2.0000      -0.908923       -24.7330
  69   2.0000      -0.907818       -24.7030
  70   2.0000      -0.907127       -24.6842
  71   2.0000      -0.888876       -24.1875
  72   2.0000      -0.888802       -24.1855
  73   2.0000      -0.888701       -24.1828
  74   2.0000      -0.888684       -24.1823
  75   2.0000      -0.888566       -24.1791
  76   2.0000      -0.887220       -24.1425
  77   2.0000      -0.887201       -24.1420
  78   2.0000      -0.885681       -24.1006
  79   2.0000      -0.885562       -24.0974
  80   2.0000      -0.885479       -24.0951
  81   2.0000      -0.885240       -24.0886
  82   2.0000      -0.885093       -24.0846
  83   2.0000      -0.885079       -24.0842
  84   2.0000      -0.885017       -24.0825
  85   2.0000      -0.747660       -20.3449
  86   2.0000      -0.746534       -20.3142
  87   2.0000      -0.745985       -20.2993
  88   2.0000      -0.745597       -20.2887
  89   2.0000      -0.745525       -20.2868
  90   2.0000      -0.745198       -20.2779
  91   2.0000      -0.738429       -20.0937
  92   2.0000      -0.738415       -20.0933
  93   2.0000      -0.738389       -20.0926
  94   2.0000      -0.738307       -20.0904
  95   2.0000      -0.738303       -20.0902
  96   2.0000      -0.737347       -20.0642
  97   2.0000      -0.736472       -20.0404
  98   2.0000      -0.736424       -20.0391
  99   2.0000      -0.736296       -20.0356
 100   2.0000      -0.736173       -20.0323
 101   2.0000      -0.735944       -20.0261
 102   2.0000      -0.735904       -20.0250
 103   2.0000      -0.735887       -20.0245
 104   2.0000      -0.733576       -19.9616
 105   2.0000      -0.508904       -13.8480
 106   2.0000      -0.488575       -13.2948
 107   2.0000      -0.488332       -13.2882
 108   2.0000      -0.487814       -13.2741
 109   2.0000      -0.484648       -13.1880
 110   2.0000      -0.484499       -13.1839
 111   2.0000      -0.476769       -12.9736
 112   2.0000      -0.476312       -12.9611
 113   2.0000      -0.476078       -12.9547
 114   2.0000      -0.475857       -12.9487
 115   2.0000      -0.475816       -12.9476
 116   2.0000      -0.475751       -12.9459
 117   2.0000      -0.474019       -12.8987
 118   2.0000      -0.473917       -12.8959
 119   2.0000      -0.473860       -12.8944
 120   2.0000      -0.473567       -12.8864
 121   2.0000      -0.473539       -12.8856
 122   2.0000      -0.473402       -12.8819
 123   2.0000      -0.473343       -12.8803
 124   2.0000      -0.470440       -12.8013
 125   2.0000      -0.452462       -12.3121
 126   2.0000      -0.436803       -11.8860
 127   2.0000      -0.435034       -11.8379
 128   2.0000      -0.433840       -11.8054
 129   2.0000      -0.433260       -11.7896
 130   2.0000      -0.432287       -11.7631
 131   2.0000      -0.431340       -11.7374
 132   2.0000      -0.430730       -11.7208
 133   2.0000      -0.429987       -11.7006
 134   2.0000      -0.429303       -11.6819
 135   2.0000      -0.428129       -11.6500
 136   2.0000      -0.427588       -11.6353
 137   2.0000      -0.426880       -11.6160
 138   2.0000      -0.426333       -11.6011
 139   2.0000      -0.422723       -11.5029
 140   2.0000      -0.422575       -11.4989
 141   2.0000      -0.422472       -11.4961
 142   2.0000      -0.422348       -11.4927
 143   2.0000      -0.422238       -11.4897
 144   2.0000      -0.422226       -11.4893
 145   2.0000      -0.422196       -11.4885
 146   2.0000      -0.422179       -11.4881
 147   2.0000      -0.422023       -11.4838
 148   2.0000      -0.421953       -11.4819
 149   2.0000      -0.421683       -11.4746
 150   2.0000      -0.421339       -11.4652
 151   2.0000      -0.420950       -11.4546
 152   2.0000      -0.420763       -11.4495
 153   2.0000      -0.420716       -11.4483
 154   2.0000      -0.420632       -11.4460
 155   2.0000      -0.420622       -11.4457
 156   2.0000      -0.420552       -11.4438
 157   2.0000      -0.420549       -11.4437
 158   2.0000      -0.420391       -11.4394
 159   2.0000      -0.420348       -11.4382
 160   2.0000      -0.420270       -11.4361
 161   2.0000      -0.420134       -11.4324
 162   2.0000      -0.420014       -11.4292
 163   2.0000      -0.419435       -11.4134
 164   2.0000      -0.418092       -11.3769
 165   2.0000      -0.416370       -11.3300
 166   2.0000      -0.411573       -11.1995
 167   2.0000      -0.409038       -11.1305
 168   2.0000      -0.406907       -11.0725
 169   2.0000      -0.379382       -10.3235
 170   2.0000      -0.379141       -10.3169
 171   2.0000      -0.357446        -9.7266
 172   2.0000      -0.357255        -9.7214
 173   2.0000      -0.355266        -9.6673
 174   2.0000      -0.352386        -9.5889
 175   2.0000      -0.351162        -9.5556
 176   2.0000      -0.350170        -9.5286
 177   2.0000      -0.347447        -9.4545
 178   2.0000      -0.346201        -9.4206
 179   2.0000      -0.345608        -9.4045
 180   2.0000      -0.345484        -9.4011
 181   2.0000      -0.345401        -9.3988
 182   2.0000      -0.345201        -9.3934
 183   2.0000      -0.345120        -9.3912
 184   2.0000      -0.344892        -9.3850
 185   2.0000      -0.340442        -9.2639
 186   2.0000      -0.339431        -9.2364
 187   2.0000      -0.335917        -9.1408
 188   2.0000      -0.327347        -8.9076
 189   2.0000      -0.324613        -8.8332
 190   2.0000      -0.323457        -8.8017
 191   2.0000      -0.322138        -8.7658
 192   2.0000      -0.321315        -8.7434
 193   2.0000      -0.320664        -8.7257
 194   2.0000      -0.316623        -8.6158
 195   2.0000      -0.315805        -8.5935
 196   2.0000      -0.315588        -8.5876
 197   2.0000      -0.314963        -8.5706
 198   2.0000      -0.314456        -8.5568
 199   2.0000      -0.314419        -8.5558
 200   2.0000      -0.314300        -8.5525
 201   2.0000      -0.314286        -8.5522
 202   2.0000      -0.314128        -8.5478
 203   2.0000      -0.314019        -8.5449
 204   2.0000      -0.313621        -8.5341
 205   2.0000      -0.313341        -8.5264
 206   2.0000      -0.313183        -8.5221
 207   2.0000      -0.312848        -8.5130
 208   2.0000      -0.312536        -8.5045
 209   2.0000      -0.311996        -8.4898
 210   2.0000      -0.311827        -8.4853
 211   2.0000      -0.311759        -8.4834
 212   2.0000      -0.311716        -8.4822
 213   2.0000      -0.311698        -8.4817
 214   2.0000      -0.311688        -8.4814
 215   2.0000      -0.311582        -8.4786
 216   2.0000      -0.311494        -8.4762
 217   2.0000      -0.311345        -8.4721
 218   2.0000      -0.311298        -8.4709
 219   2.0000      -0.311215        -8.4686
 220   2.0000      -0.311166        -8.4673
 221   2.0000      -0.311099        -8.4654
 222   2.0000      -0.307540        -8.3686
 223   2.0000      -0.304816        -8.2945
 224   2.0000      -0.304066        -8.2740
 225   0.0000      -0.034694        -0.9441
 226   0.0000      -0.033715        -0.9174
 227   0.0000      -0.033224        -0.9041
 228   0.0000      -0.021737        -0.5915
 229   0.0000      -0.020904        -0.5688

MULLIKEN ATOMIC CHARGES
-----------------------
   0 Mg:    1.322674
   1 C :   -0.622351
   2 C :    0.331757
   3 N :   -0.270418
   4 H :    0.219688
   5 H :    0.246284
   6 H :    0.219755
   7 C :   -0.569962
   8 C :    0.303321
   9 N :   -0.368198
  10 H :    0.211560
  11 H :    0.211903
  12 H :    0.211902
  13 C :   -0.593169
  14 C :    0.339517
  15 N :   -0.386002
  16 H :    0.212822
  17 H :    0.212394
  18 H :    0.227311
  19 C :   -0.617002
  20 C :    0.341210
  21 N :   -0.329517
  22 H :    0.218707
  23 H :    0.245436
  24 H :    0.219041
  25 C :   -0.566802
  26 C :    0.298173
  27 N :   -0.365770
  28 H :    0.211525
  29 H :    0.211575
  30 H :    0.211867
  31 C :   -0.635763
  32 C :    0.341653
  33 N :   -0.381219
  34 H :    0.227474
  35 H :    0.211078
  36 H :    0.220037
  37 C :   -0.612101
  38 C :    0.338999
  39 N :   -0.318924
  40 H :    0.246414
  41 H :    0.218586
  42 H :    0.218344
  43 C :   -0.565468
  44 C :    0.295777
  45 N :   -0.364391
  46 H :    0.211477
  47 H :    0.211549
  48 H :    0.211703
  49 C :   -0.567779
  50 C :    0.312383
  51 N :   -0.366982
  52 H :    0.213049
  53 H :    0.213428
  54 H :    0.212686
  55 C :   -0.568238
  56 C :    0.312807
  57 N :   -0.366662
  58 H :    0.213136
  59 H :    0.213169
  60 H :    0.212993
  61 C :   -0.569632
  62 C :    0.303962
  63 N :   -0.368941
  64 H :    0.212058
  65 H :    0.211602
  66 H :    0.211878
  67 C :   -0.565293
  68 C :    0.297229
  69 N :   -0.365717
  70 H :    0.211727
  71 H :    0.211513
  72 H :    0.211517
  73 C :   -0.610209
  74 C :    0.338218
  75 N :   -0.316415
  76 H :    0.219600
  77 H :    0.219573
  78 H :    0.242307
  79 C :   -0.619346
  80 C :    0.330318
  81 N :   -0.280730
  82 H :    0.218935
  83 H :    0.220301
  84 H :    0.246241
  85 C :   -0.570973
  86 C :    0.316753
  87 N :   -0.371214
  88 H :    0.212104
  89 H :    0.212434
  90 H :    0.212664
  91 C :   -0.577851
  92 C :    0.320503
  93 N :   -0.373268
  94 H :    0.212823
  95 H :    0.212976
  96 H :    0.213261
  97 C :   -0.567943
  98 C :    0.313883
  99 N :   -0.368568
 100 H :    0.212951
 101 H :    0.213066
 102 H :    0.212833
 103 C :   -0.572035
 104 C :    0.301671
 105 N :   -0.366404
 106 H :    0.212006
 107 H :    0.212246
 108 H :    0.212204
 109 C :   -0.570559
 110 C :    0.315060
 111 N :   -0.368151
 112 H :    0.213167
 113 H :    0.213488
 114 H :    0.213223
 115 C :   -0.618193
 116 C :    0.353658
 117 N :   -0.325300
 118 H :    0.236300
 119 H :    0.221120
 120 H :    0.220927
Sum of atomic charges:    2.0000000

LOEWDIN ATOMIC CHARGES
----------------------
   0 Mg:    1.335136
   1 C :   -0.352474
   2 C :    0.244083
   3 N :   -0.443236
   4 H :    0.207774
   5 H :    0.227190
   6 H :    0.208458
   7 C :   -0.352380
   8 C :    0.153352
   9 N :   -0.402353
  10 H :    0.200524
  11 H :    0.200574
  12 H :    0.200593
  13 C :   -0.357279
  14 C :    0.170475
  15 N :   -0.427612
  16 H :    0.201618
  17 H :    0.201331
  18 H :    0.215297
  19 C :   -0.353290
  20 C :    0.244115
  21 N :   -0.425490
  22 H :    0.207258
  23 H :    0.226027
  24 H :    0.206947
  25 C :   -0.352164
  26 C :    0.152888
  27 N :   -0.401904
  28 H :    0.200459
  29 H :    0.200461
  30 H :    0.200582
  31 C :   -0.362721
  32 C :    0.163198
  33 N :   -0.423521
  34 H :    0.213782
  35 H :    0.205543
  36 H :    0.210232
  37 C :   -0.352970
  38 C :    0.244326
  39 N :   -0.428174
  40 H :    0.226094
  41 H :    0.207262
  42 H :    0.207084
  43 C :   -0.352102
  44 C :    0.152861
  45 N :   -0.401867
  46 H :    0.200488
  47 H :    0.200460
  48 H :    0.200493
  49 C :   -0.350870
  50 C :    0.165641
  51 N :   -0.409855
  52 H :    0.201653
  53 H :    0.201759
  54 H :    0.201600
  55 C :   -0.350830
  56 C :    0.166267
  57 N :   -0.410839
  58 H :    0.201697
  59 H :    0.201762
  60 H :    0.201768
  61 C :   -0.352326
  62 C :    0.152957
  63 N :   -0.401994
  64 H :    0.200641
  65 H :    0.200582
  66 H :    0.200618
  67 C :   -0.352003
  68 C :    0.152903
  69 N :   -0.401893
  70 H :    0.200534
  71 H :    0.200505
  72 H :    0.200483
  73 C :   -0.352625
  74 C :    0.244554
  75 N :   -0.431247
  76 H :    0.207437
  77 H :    0.207296
  78 H :    0.225114
  79 C :   -0.352520
  80 C :    0.241291
  81 N :   -0.436857
  82 H :    0.207072
  83 H :    0.207577
  84 H :    0.227826
  85 C :   -0.351248
  86 C :    0.161324
  87 N :   -0.408183
  88 H :    0.201040
  89 H :    0.201104
  90 H :    0.201261
  91 C :   -0.351212
  92 C :    0.162882
  93 N :   -0.415169
  94 H :    0.201200
  95 H :    0.201594
  96 H :    0.201490
  97 C :   -0.351010
  98 C :    0.164995
  99 N :   -0.409703
 100 H :    0.201567
 101 H :    0.201665
 102 H :    0.201622
 103 C :   -0.352866
 104 C :    0.152749
 105 N :   -0.402124
 106 H :    0.200622
 107 H :    0.200736
 108 H :    0.200623
 109 C :   -0.351226
 110 C :    0.166037
 111 N :   -0.410788
 112 H :    0.201839
 113 H :    0.201812
 114 H :    0.201781
 115 C :   -0.346408
 116 C :    0.243058
 117 N :   -0.421980
 118 H :    0.221755
 119 H :    0.208103
 120 H :    0.207954

  Mayer bond orders larger than 0.100000
B(  0-Mg,  3-N ) :   0.2408 B(  0-Mg, 21-N ) :   0.1034 B(  0-Mg, 39-N ) :   0.1459
B(  0-Mg, 75-N ) :   0.1476 B(  0-Mg, 81-N ) :   0.2016 B(  0-Mg,117-N ) :   0.1079
B(  1-C ,  2-C ) :   0.9876 B(  1-C ,  4-H ) :   0.9368 B(  1-C ,  5-H ) :   0.9068
B(  1-C ,  6-H ) :   0.9368 B(  2-C ,  3-N ) :   2.5977 B(  7-C ,  8-C ) :   0.9720
B(  7-C , 10-H ) :   0.9402 B(  7-C , 11-H ) :   0.9403 B(  7-C , 12-H ) :   0.9404
B(  8-C ,  9-N ) :   2.8636 B( 13-C , 14-C ) :   0.9690 B( 13-C , 16-H ) :   0.9413
B( 13-C , 17-H ) :   0.9427 B( 13-C , 18-H ) :   0.9171 B( 14-C , 15-N ) :   2.7414
B( 19-C , 20-C ) :   0.9848 B( 19-C , 22-H ) :   0.9373 B( 19-C , 23-H ) :   0.9081
B( 19-C , 24-H ) :   0.9390 B( 20-C , 21-N ) :   2.3946 B( 25-C , 26-C ) :   0.9731
B( 25-C , 28-H ) :   0.9403 B( 25-C , 29-H ) :   0.9407 B( 25-C , 30-H ) :   0.9403
B( 26-C , 27-N ) :   2.8698 B( 31-C , 32-C ) :   0.9277 B( 31-C , 34-H ) :   0.9250
B( 31-C , 35-H ) :   0.9387 B( 31-C , 36-H ) :   0.9363 B( 32-C , 33-N ) :   2.8155
B( 37-C , 38-C ) :   0.9849 B( 37-C , 40-H ) :   0.9085 B( 37-C , 41-H ) :   0.9376
B( 37-C , 42-H ) :   0.9369 B( 38-C , 39-N ) :   2.4563 B( 43-C , 44-C ) :   0.9733
B( 43-C , 46-H ) :   0.9403 B( 43-C , 47-H ) :   0.9404 B( 43-C , 48-H ) :   0.9403
B( 44-C , 45-N ) :   2.8725 B( 49-C , 50-C ) :   0.9714 B( 49-C , 52-H ) :   0.9392
B( 49-C , 53-H ) :   0.9394 B( 49-C , 54-H ) :   0.9394 B( 50-C , 51-N ) :   2.7728
B( 55-C , 56-C ) :   0.9712 B( 55-C , 58-H ) :   0.9393 B( 55-C , 59-H ) :   0.9396
B( 55-C , 60-H ) :   0.9391 B( 56-C , 57-N ) :   2.7765 B( 61-C , 62-C ) :   0.9722
B( 61-C , 64-H ) :   0.9407 B( 61-C , 65-H ) :   0.9400 B( 61-C , 66-H ) :   0.9405
B( 62-C , 63-N ) :   2.8573 B( 67-C , 68-C ) :   0.9726 B( 67-C , 70-H ) :   0.9403
B( 67-C , 71-H ) :   0.9404 B( 67-C , 72-H ) :   0.9404 B( 68-C , 69-N ) :   2.8649
B( 73-C , 74-C ) :   0.9882 B( 73-C , 76-H ) :   0.9377 B( 73-C , 77-H ) :   0.9375
B( 73-C , 78-H ) :   0.9111 B( 74-C , 75-N ) :   2.4174 B( 79-C , 80-C ) :   0.9789
B( 79-C , 82-H ) :   0.9397 B( 79-C , 83-H ) :   0.9384 B( 79-C , 84-H ) :   0.9027
B( 80-C , 81-N ) :   2.5491 B( 85-C , 86-C ) :   0.9697 B( 85-C , 88-H ) :   0.9405
B( 85-C , 89-H ) :   0.9399 B( 85-C , 90-H ) :   0.9403 B( 86-C , 87-N ) :   2.8035
B( 91-C , 92-C ) :   0.9694 B( 91-C , 94-H ) :   0.9391 B( 91-C , 95-H ) :   0.9392
B( 91-C , 96-H ) :   0.9406 B( 92-C , 93-N ) :   2.8197 B( 97-C , 98-C ) :   0.9715
B( 97-C ,100-H ) :   0.9392 B( 97-C ,101-H ) :   0.9395 B( 97-C ,102-H ) :   0.9394
B( 98-C , 99-N ) :   2.7763 B(103-C ,104-C ) :   0.9721 B(103-C ,106-H ) :   0.9404
B(103-C ,107-H ) :   0.9398 B(103-C ,108-H ) :   0.9403 B(104-C ,105-N ) :   2.8683
B(109-C ,110-C ) :   0.9714 B(109-C ,112-H ) :   0.9391 B(109-C ,113-H ) :   0.9394
B(109-C ,114-H ) :   0.9389 B(110-C ,111-N ) :   2.7750 B(115-C ,116-C ) :   0.9800
B(115-C ,118-H ) :   0.9092 B(115-C ,119-H ) :   0.9379 B(115-C ,120-H ) :   0.9380
B(116-C ,117-N ) :   2.3951

Dispersion correction           -0.035504249
FINAL SINGLE POINT ENERGY     -2854.490805310287

DIPOLE MOMENT
-------------
                                X             Y             Z
Electronic contribution:      1.21021     -11.08340       2.58854
Nuclear contribution   :      0.17313       9.62253      -1.20948
                        -----------------------------------------
Total Dipole Moment    :      1.38334      -1.46088       1.37906
                        -----------------------------------------
Magnitude (a.u.)       :      2.43918
Magnitude (Debye)      :      6.19990

Rotational constants in cm-1:     0.000816     0.000531     0.000451
Rotational constants in MHz :    24.467494    15.923392    13.524730

                             ****ORCA TERMINATED NORMALLY****
TOTAL RUN TIME: 0 days 0 hours 7 minutes 15 seconds 290 msec
