                         Program Version 5.0.4 -  RELEASE  -
|  1> ! r2SCAN-3c ENERGY TightSCF defgrid3 def2/J
|  2> %maxcore 8000
|  3> %PAL NPROCS 8 END
|  4> %CPCM SMD TRUE
|  5>       SMDSOLVENT "MeCN"
|  6> END
|  7> *xyzfile 1 1  xtbopt.xyz
|  8>
|  9>                          ****END OF INPUT****

CARTESIAN COORDINATES (ANGSTROEM)
---------------------------------
  H     -3.917769   -2.584102    1.223813
  H     -1.382136    1.433286    4.631042
  C     -2.162677    3.989385   -0.256578
  H     -2.104632    1.207383    3.017165
  H     -3.222433   -2.349270    2.842248
  H     -1.062853    2.607289    3.331410
  N     -1.170687    1.642729    0.059977
  H     -3.225260    3.910717   -0.487839
  H     -1.644571    4.487169   -1.077381
  H     -2.024156    4.562825    0.659233
  N      2.187605    1.517744   -0.369340
  C      3.060421    2.227185   -0.159406
  C     -1.609538    2.691082   -0.083211
  C      4.160756    3.093792    0.103113
  Na     0.472202   -0.077984   -0.250142
  N     -0.248029   -0.433899   -2.583743
  C     -0.477310   -0.173321   -3.674227
  C     -0.766201    0.144326   -5.034116
  H      4.407560    3.662232   -0.791685
  H      5.018886    2.488838    0.403521
  H      3.901994    3.775898    0.911527
  N      2.273512   -1.750090   -0.379934
  C      2.350314   -2.101795    0.706245
  C      2.457011   -2.550810    2.053201
  H      3.503737   -2.710538    2.305241
  H      1.904017   -3.482287    2.160894
  H      2.026894   -1.789883    2.701531
  H     -0.037675    0.871387   -5.389917
  H     -1.771252    0.562325   -5.091565
  H     -0.710420   -0.755926   -5.644223
  N      0.813046    0.161544    2.845497
  C     -0.094175    0.790878    3.147619
  C     -1.226875    1.553918    3.559702
  C     -2.035579   -1.747091    1.257836
  C     -3.320976   -1.918894    1.847364
  H     -3.810875   -0.946456    1.916646
  N     -1.011125   -1.600519    0.769942
  C     -0.311913   -3.977058   -1.496598
  C      0.461947   -4.617643   -0.485112
  N      1.084260   -5.144346    0.320680
  H      0.008236   -2.938897   -1.583214
  H     -1.366766   -4.001496   -1.223927
  H     -0.167304   -4.492218   -2.444944
  C      3.458835   -0.291492   -3.304252
  C      2.830186    0.781257   -4.001421
  N      2.331770    1.638018   -4.577297
  H      3.427565   -1.191525   -3.916235
  H      2.930817   -0.469776   -2.367582
  H      4.495281   -0.033400   -3.092806
  C      0.841035    6.303311    3.022143
  C     -0.321892    5.484300    2.955544
  N     -1.257730    4.823520    2.895939
  H      0.727025    7.039319    3.816918
  H      0.980092    6.812747    2.069256
  H      1.710553    5.676734    3.229043
  C      1.055864    4.670840   -4.787040
  C      0.318308    4.928119   -3.591859
  N     -0.274167    5.136516   -2.633496
  H      1.856294    5.402592   -4.887416
  H      0.390977    4.741032   -5.646847
  H      1.484281    3.668338   -4.735595
  C     12.513521   -1.441750   -2.225154
  C     11.272724   -1.212013   -1.550377
  N     10.280385   -1.029529   -1.009550
  H     12.318316   -1.722077   -3.259564
  H     13.052988   -2.246158   -1.726354
  H     13.113486   -0.532732   -2.201955
  C     -6.963753   -1.475649    2.163296
  C     -6.907877   -1.303814    0.752200
  N     -6.843417   -1.160444   -0.384416
  H     -7.991191   -1.370155    2.508019
  H     -6.337576   -0.717515    2.633299
  H     -6.594714   -2.471058    2.418139
  C     -3.811965    0.024624   -1.252706
  C     -3.800841    0.304764   -2.651220
  N     -3.806849    0.516224   -3.777548
  H     -2.907292   -0.521477   -0.989476
  H     -4.694104   -0.564169   -1.000583
  H     -3.836801    0.956860   -0.691258
  C     -4.492231    3.597079    2.519674
  C     -4.525866    2.187612    2.323244
  N     -4.547320    1.050659    2.173592
  H     -5.115439    3.863080    3.372424
  H     -4.872702    4.083624    1.622148
  H     -3.466508    3.917093    2.704427
  C     -6.999458    1.818943   -1.968460
  C     -6.139641    2.681607   -1.225448
  N     -5.441658    3.365746   -0.627226
  H     -7.069991    0.856599   -1.458555
  H     -6.584711    1.670765   -2.964800
  H     -7.990163    2.264320   -2.046269
  C     -4.145426   -6.133977    1.336058
  C     -5.041649   -5.234951    1.990264
  N     -5.751249   -4.495014    2.501778
  H     -3.288651   -6.332716    1.978375
  H     -3.806711   -5.669839    0.408480
  H     -4.658842   -7.067846    1.112195
  C     -5.442114   -2.972026   -2.770084
  C     -4.485621   -3.498485   -1.852751
  N     -3.723682   -3.914738   -1.104228
  H     -5.902400   -3.784711   -3.330123
  H     -4.949473   -2.284749   -3.457215
  H     -6.208532   -2.435889   -2.208214
  C      7.740186   -1.114248    1.188569
  C      6.991356    0.094109    1.233844
  N      6.388201    1.069227    1.280168
  H      8.473480   -1.060588    0.383679
  H      7.069713   -1.956694    1.015491
  H      8.258816   -1.256195    2.135968
  C      5.191482    2.560126    4.044117
  C      4.209261    3.558725    3.773322
  N      3.420281    4.359164    3.549050
  H      5.543775    2.129263    3.104848
  H      4.750082    1.774504    4.655799
  H      6.030993    3.008546    4.573943
  C      4.250920   -5.900081    0.880932
  C      5.122934   -4.772280    0.959852
  N      5.822165   -3.867415    1.034102
  H      3.231707   -5.564217    0.678872
  H      4.272526   -6.443002    1.825084
  H      4.578780   -6.558114    0.077421

 Total Charge           Charge          ....    1
 Multiplicity           Mult            ....    1
 Number of Electrons    NEL             ....  450
 Basis Dimension        Dim             .... 1554

ORBITAL ENERGIES
----------------

  NO   OCC          E(Eh)            E(eV)
   0   2.0000     -38.170044     -1038.6597
   1   2.0000     -14.163944      -385.4205
   2   2.0000     -14.162900      -385.3921
   3   2.0000     -14.162365      -385.3775
   4   2.0000     -14.160476      -385.3261
   5   2.0000     -14.159644      -385.3035
   6   2.0000     -14.159499      -385.2996
   7   2.0000     -14.158743      -385.2790
   8   2.0000     -14.158724      -385.2785
   9   2.0000     -14.158691      -385.2776
  10   2.0000     -14.158283      -385.2665
  11   2.0000     -14.158255      -385.2657
  12   2.0000     -14.158122      -385.2621
  13   2.0000     -14.158074      -385.2608
  14   2.0000     -14.157985      -385.2584
  15   2.0000     -14.157145      -385.2355
  16   2.0000     -14.157139      -385.2353
  17   2.0000     -14.157004      -385.2317
  18   2.0000     -14.156917      -385.2293
  19   2.0000     -14.156800      -385.2261
  20   2.0000     -14.156579      -385.2201
  21   2.0000     -10.089157      -274.5399
  22   2.0000     -10.089053      -274.5371
  23   2.0000     -10.088932      -274.5338
  24   2.0000     -10.086741      -274.4742
  25   2.0000     -10.084703      -274.4187
  26   2.0000     -10.084228      -274.4058
  27   2.0000     -10.083805      -274.3943
  28   2.0000     -10.083498      -274.3859
  29   2.0000     -10.083471      -274.3852
  30   2.0000     -10.082779      -274.3664
  31   2.0000     -10.082638      -274.3625
  32   2.0000     -10.082307      -274.3535
  33   2.0000     -10.082283      -274.3529
  34   2.0000     -10.082122      -274.3485
  35   2.0000     -10.082099      -274.3479
  36   2.0000     -10.081331      -274.3270
  37   2.0000     -10.081295      -274.3260
  38   2.0000     -10.081166      -274.3225
  39   2.0000     -10.081134      -274.3216
  40   2.0000     -10.080638      -274.3081
  41   2.0000     -10.061840      -273.7966
  42   2.0000     -10.059165      -273.7238
  43   2.0000     -10.058283      -273.6998
  44   2.0000     -10.058079      -273.6942
  45   2.0000     -10.058027      -273.6928
  46   2.0000     -10.058007      -273.6923
  47   2.0000     -10.057892      -273.6892
  48   2.0000     -10.056314      -273.6462
  49   2.0000     -10.055996      -273.6376
  50   2.0000     -10.055868      -273.6341
  51   2.0000     -10.055755      -273.6310
  52   2.0000     -10.055645      -273.6280
  53   2.0000     -10.055506      -273.6242
  54   2.0000     -10.055203      -273.6160
  55   2.0000     -10.054756      -273.6038
  56   2.0000     -10.054685      -273.6019
  57   2.0000     -10.054378      -273.5935
  58   2.0000     -10.054207      -273.5889
  59   2.0000     -10.050044      -273.4756
  60   2.0000     -10.047848      -273.4158
  61   2.0000      -2.102168       -57.2029
  62   2.0000      -1.024205       -27.8700
  63   2.0000      -1.023490       -27.8506
  64   2.0000      -1.022702       -27.8291
  65   2.0000      -0.893768       -24.3207
  66   2.0000      -0.891825       -24.2678
  67   2.0000      -0.891301       -24.2535
  68   2.0000      -0.890087       -24.2205
  69   2.0000      -0.887640       -24.1539
  70   2.0000      -0.887421       -24.1479
  71   2.0000      -0.886572       -24.1249
  72   2.0000      -0.886210       -24.1150
  73   2.0000      -0.886150       -24.1134
  74   2.0000      -0.885564       -24.0974
  75   2.0000      -0.885511       -24.0960
  76   2.0000      -0.885302       -24.0903
  77   2.0000      -0.885154       -24.0863
  78   2.0000      -0.885087       -24.0844
  79   2.0000      -0.884572       -24.0704
  80   2.0000      -0.884392       -24.0655
  81   2.0000      -0.884180       -24.0598
  82   2.0000      -0.884120       -24.0581
  83   2.0000      -0.883900       -24.0521
  84   2.0000      -0.883647       -24.0453
  85   2.0000      -0.738029       -20.0828
  86   2.0000      -0.737706       -20.0740
  87   2.0000      -0.737067       -20.0566
  88   2.0000      -0.736949       -20.0534
  89   2.0000      -0.736457       -20.0400
  90   2.0000      -0.736018       -20.0281
  91   2.0000      -0.735967       -20.0267
  92   2.0000      -0.735626       -20.0174
  93   2.0000      -0.735487       -20.0136
  94   2.0000      -0.735063       -20.0021
  95   2.0000      -0.734662       -19.9912
  96   2.0000      -0.734107       -19.9761
  97   2.0000      -0.733831       -19.9686
  98   2.0000      -0.733367       -19.9559
  99   2.0000      -0.733153       -19.9501
 100   2.0000      -0.733086       -19.9483
 101   2.0000      -0.732955       -19.9447
 102   2.0000      -0.731983       -19.9183
 103   2.0000      -0.731376       -19.9018
 104   2.0000      -0.730667       -19.8825
 105   2.0000      -0.478543       -13.0218
 106   2.0000      -0.477147       -12.9838
 107   2.0000      -0.476467       -12.9653
 108   2.0000      -0.476058       -12.9542
 109   2.0000      -0.475244       -12.9321
 110   2.0000      -0.474679       -12.9167
 111   2.0000      -0.474415       -12.9095
 112   2.0000      -0.473837       -12.8937
 113   2.0000      -0.473695       -12.8899
 114   2.0000      -0.473351       -12.8805
 115   2.0000      -0.472755       -12.8643
 116   2.0000      -0.472212       -12.8496
 117   2.0000      -0.471810       -12.8386
 118   2.0000      -0.471160       -12.8209
 119   2.0000      -0.470377       -12.7996
 120   2.0000      -0.469618       -12.7790
 121   2.0000      -0.469270       -12.7695
 122   2.0000      -0.468276       -12.7424
 123   2.0000      -0.467361       -12.7175
 124   2.0000      -0.466893       -12.7048
 125   2.0000      -0.433762       -11.8033
 126   2.0000      -0.433221       -11.7886
 127   2.0000      -0.431385       -11.7386
 128   2.0000      -0.431294       -11.7361
 129   2.0000      -0.429767       -11.6946
 130   2.0000      -0.428438       -11.6584
 131   2.0000      -0.427935       -11.6447
 132   2.0000      -0.427521       -11.6334
 133   2.0000      -0.425864       -11.5883
 134   2.0000      -0.425381       -11.5752
 135   2.0000      -0.424600       -11.5540
 136   2.0000      -0.423814       -11.5326
 137   2.0000      -0.423251       -11.5172
 138   2.0000      -0.422973       -11.5097
 139   2.0000      -0.422569       -11.4987
 140   2.0000      -0.421193       -11.4612
 141   2.0000      -0.420533       -11.4433
 142   2.0000      -0.420392       -11.4395
 143   2.0000      -0.420169       -11.4334
 144   2.0000      -0.419932       -11.4269
 145   2.0000      -0.419690       -11.4203
 146   2.0000      -0.419439       -11.4135
 147   2.0000      -0.418990       -11.4013
 148   2.0000      -0.418873       -11.3981
 149   2.0000      -0.418731       -11.3942
 150   2.0000      -0.418170       -11.3790
 151   2.0000      -0.417809       -11.3692
 152   2.0000      -0.417311       -11.3556
 153   2.0000      -0.416977       -11.3465
 154   2.0000      -0.416717       -11.3394
 155   2.0000      -0.415984       -11.3195
 156   2.0000      -0.415450       -11.3050
 157   2.0000      -0.414982       -11.2922
 158   2.0000      -0.414303       -11.2738
 159   2.0000      -0.413995       -11.2654
 160   2.0000      -0.413027       -11.2390
 161   2.0000      -0.412427       -11.2227
 162   2.0000      -0.411568       -11.1993
 163   2.0000      -0.408366       -11.1122
 164   2.0000      -0.408169       -11.1068
 165   2.0000      -0.374701       -10.1961
 166   2.0000      -0.361943        -9.8490
 167   2.0000      -0.358216        -9.7476
 168   2.0000      -0.354827        -9.6553
 169   2.0000      -0.350595        -9.5402
 170   2.0000      -0.350223        -9.5301
 171   2.0000      -0.349159        -9.5011
 172   2.0000      -0.348795        -9.4912
 173   2.0000      -0.348262        -9.4767
 174   2.0000      -0.347116        -9.4455
 175   2.0000      -0.346572        -9.4307
 176   2.0000      -0.346238        -9.4216
 177   2.0000      -0.345183        -9.3929
 178   2.0000      -0.344837        -9.3835
 179   2.0000      -0.344479        -9.3737
 180   2.0000      -0.344123        -9.3641
 181   2.0000      -0.343822        -9.3559
 182   2.0000      -0.343256        -9.3405
 183   2.0000      -0.342383        -9.3167
 184   2.0000      -0.342077        -9.3084
 185   2.0000      -0.322561        -8.7773
 186   2.0000      -0.321220        -8.7408
 187   2.0000      -0.318910        -8.6780
 188   2.0000      -0.318694        -8.6721
 189   2.0000      -0.317881        -8.6500
 190   2.0000      -0.317365        -8.6359
 191   2.0000      -0.316934        -8.6242
 192   2.0000      -0.315342        -8.5809
 193   2.0000      -0.315076        -8.5736
 194   2.0000      -0.314775        -8.5655
 195   2.0000      -0.313778        -8.5383
 196   2.0000      -0.313299        -8.5253
 197   2.0000      -0.312574        -8.5056
 198   2.0000      -0.311851        -8.4859
 199   2.0000      -0.311638        -8.4801
 200   2.0000      -0.311558        -8.4779
 201   2.0000      -0.311148        -8.4668
 202   2.0000      -0.311122        -8.4661
 203   2.0000      -0.310807        -8.4575
 204   2.0000      -0.310301        -8.4437
 205   2.0000      -0.310186        -8.4406
 206   2.0000      -0.309756        -8.4289
 207   2.0000      -0.308873        -8.4049
 208   2.0000      -0.308382        -8.3915
 209   2.0000      -0.307512        -8.3678
 210   2.0000      -0.307285        -8.3616
 211   2.0000      -0.306948        -8.3525
 212   2.0000      -0.306303        -8.3349
 213   2.0000      -0.305490        -8.3128
 214   2.0000      -0.304657        -8.2901
 215   2.0000      -0.304003        -8.2723
 216   2.0000      -0.303432        -8.2568
 217   2.0000      -0.303069        -8.2469
 218   2.0000      -0.301980        -8.2173
 219   2.0000      -0.300470        -8.1762
 220   2.0000      -0.300013        -8.1638
 221   2.0000      -0.299753        -8.1567
 222   2.0000      -0.299266        -8.1434
 223   2.0000      -0.297811        -8.1038
 224   2.0000      -0.297442        -8.0938
 225   0.0000      -0.014570        -0.3965
 226   0.0000      -0.012268        -0.3338
 227   0.0000      -0.010169        -0.2767
 228   0.0000      -0.009859        -0.2683
 229   0.0000      -0.007107        -0.1934

MULLIKEN ATOMIC CHARGES
-----------------------
   0 H :    0.228022
   1 H :    0.213136
   2 C :   -0.693065
   3 H :    0.214901
   4 H :    0.217617
   5 H :    0.226576
   6 N :   -0.437617
   7 H :    0.230179
   8 H :    0.231706
   9 H :    0.224194
  10 N :   -0.422517
  11 C :    0.431745
  12 C :    0.466825
  13 C :   -0.653961
  14 Na:    0.767775
  15 N :   -0.421835
  16 C :    0.447656
  17 C :   -0.646195
  18 H :    0.211159
  19 H :    0.240069
  20 H :    0.217684
  21 N :   -0.475303
  22 C :    0.506583
  23 C :   -0.685183
  24 H :    0.220886
  25 H :    0.229256
  26 H :    0.233153
  27 H :    0.217854
  28 H :    0.224901
  29 H :    0.218765
  30 N :   -0.402285
  31 C :    0.388151
  32 C :   -0.606886
  33 C :    0.404610
  34 C :   -0.685687
  35 H :    0.243219
  36 N :   -0.403598
  37 C :   -0.607265
  38 C :    0.341172
  39 N :   -0.389810
  40 H :    0.217497
  41 H :    0.224237
  42 H :    0.212220
  43 C :   -0.590606
  44 C :    0.337956
  45 N :   -0.391059
  46 H :    0.215664
  47 H :    0.225385
  48 H :    0.215803
  49 C :   -0.603098
  50 C :    0.352097
  51 N :   -0.400110
  52 H :    0.210966
  53 H :    0.211253
  54 H :    0.235754
  55 C :   -0.589694
  56 C :    0.317791
  57 N :   -0.377731
  58 H :    0.210649
  59 H :    0.211045
  60 H :    0.229816
  61 C :   -0.568274
  62 C :    0.308100
  63 N :   -0.364654
  64 H :    0.212140
  65 H :    0.212114
  66 H :    0.212397
  67 C :   -0.640047
  68 C :    0.382060
  69 N :   -0.407648
  70 H :    0.211701
  71 H :    0.223703
  72 H :    0.234263
  73 C :   -0.642671
  74 C :    0.339507
  75 N :   -0.387858
  76 H :    0.213463
  77 H :    0.238900
  78 H :    0.227324
  79 C :   -0.646375
  80 C :    0.393159
  81 N :   -0.403891
  82 H :    0.211038
  83 H :    0.232139
  84 H :    0.228397
  85 C :   -0.602201
  86 C :    0.325250
  87 N :   -0.379846
  88 H :    0.229748
  89 H :    0.219254
  90 H :    0.211987
  91 C :   -0.599242
  92 C :    0.333534
  93 N :   -0.377702
  94 H :    0.212340
  95 H :    0.227042
  96 H :    0.211894
  97 C :   -0.632663
  98 C :    0.382337
  99 N :   -0.402623
 100 H :    0.210511
 101 H :    0.217820
 102 H :    0.234817
 103 C :   -0.609943
 104 C :    0.336852
 105 N :   -0.393404
 106 H :    0.226703
 107 H :    0.228018
 108 H :    0.211356
 109 C :   -0.593951
 110 C :    0.338531
 111 N :   -0.382644
 112 H :    0.222862
 113 H :    0.212739
 114 H :    0.212721
 115 C :   -0.579871
 116 C :    0.317222
 117 N :   -0.379733
 118 H :    0.224130
 119 H :    0.213254
 120 H :    0.211491
Sum of atomic charges:    1.0000000

LOEWDIN ATOMIC CHARGES
----------------------
   0 H :    0.208457
   1 H :    0.202048
   2 C :   -0.365919
   3 H :    0.208945
   4 H :    0.203965
   5 H :    0.216582
   6 N :   -0.387225
   7 H :    0.215077
   8 H :    0.218973
   9 H :    0.211317
  10 N :   -0.391594
  11 C :    0.203100
  12 C :    0.195103
  13 C :   -0.354496
  14 Na:    0.510273
  15 N :   -0.376798
  16 C :    0.195203
  17 C :   -0.352295
  18 H :    0.201509
  19 H :    0.221876
  20 H :    0.206229
  21 N :   -0.406098
  22 C :    0.191359
  23 C :   -0.353196
  24 H :    0.205867
  25 H :    0.208250
  26 H :    0.216144
  27 H :    0.205045
  28 H :    0.209793
  29 H :    0.204698
  30 N :   -0.389029
  31 C :    0.175027
  32 C :   -0.353991
  33 C :    0.191331
  34 C :   -0.360858
  35 H :    0.224526
  36 N :   -0.389633
  37 C :   -0.356886
  38 C :    0.164466
  39 N :   -0.422669
  40 H :    0.209749
  41 H :    0.213291
  42 H :    0.200428
  43 C :   -0.355215
  44 C :    0.164074
  45 N :   -0.417460
  46 H :    0.202948
  47 H :    0.213957
  48 H :    0.203025
  49 C :   -0.361626
  50 C :    0.172891
  51 N :   -0.442577
  52 H :    0.200943
  53 H :    0.201179
  54 H :    0.218440
  55 C :   -0.361274
  56 C :    0.163797
  57 N :   -0.417535
  58 H :    0.200350
  59 H :    0.200310
  60 H :    0.216262
  61 C :   -0.351301
  62 C :    0.160979
  63 N :   -0.407376
  64 H :    0.200981
  65 H :    0.201020
  66 H :    0.201078
  67 C :   -0.364026
  68 C :    0.169738
  69 N :   -0.447476
  70 H :    0.200743
  71 H :    0.206309
  72 H :    0.218930
  73 C :   -0.355510
  74 C :    0.153592
  75 N :   -0.409450
  76 H :    0.210778
  77 H :    0.216391
  78 H :    0.209118
  79 C :   -0.364031
  80 C :    0.161794
  81 N :   -0.428198
  82 H :    0.200678
  83 H :    0.210241
  84 H :    0.212632
  85 C :   -0.357105
  86 C :    0.163717
  87 N :   -0.418885
  88 H :    0.214582
  89 H :    0.203480
  90 H :    0.200993
  91 C :   -0.357991
  92 C :    0.158939
  93 N :   -0.416647
  94 H :    0.201233
  95 H :    0.211931
  96 H :    0.200848
  97 C :   -0.357538
  98 C :    0.168503
  99 N :   -0.424816
 100 H :    0.200162
 101 H :    0.204384
 102 H :    0.214246
 103 C :   -0.370677
 104 C :    0.173269
 105 N :   -0.440512
 106 H :    0.213970
 107 H :    0.214050
 108 H :    0.201066
 109 C :   -0.356214
 110 C :    0.161328
 111 N :   -0.416463
 112 H :    0.214171
 113 H :    0.201573
 114 H :    0.201546
 115 C :   -0.359070
 116 C :    0.158107
 117 N :   -0.412346
 118 H :    0.216017
 119 H :    0.201429
 120 H :    0.200653

  Mayer bond orders larger than 0.100000
B(  0-H , 34-C ) :   0.9386 B(  1-H , 32-C ) :   0.9393 B(  2-C ,  7-H ) :   0.9267
B(  2-C ,  8-H ) :   0.9242 B(  2-C ,  9-H ) :   0.9297 B(  2-C , 12-C ) :   0.9027
B(  3-H , 32-C ) :   0.9358 B(  4-H , 34-C ) :   0.9393 B(  5-H , 32-C ) :   0.9319
B(  6-N , 12-C ) :   2.5595 B( 10-N , 11-C ) :   2.5335 B( 11-C , 13-C ) :   0.9338
B( 13-C , 18-H ) :   0.9420 B( 13-C , 19-H ) :   0.9180 B( 13-C , 20-H ) :   0.9410
B( 15-N , 16-C ) :   2.5821 B( 16-C , 17-C ) :   0.9427 B( 17-C , 27-H ) :   0.9324
B( 17-C , 28-H ) :   0.9278 B( 17-C , 29-H ) :   0.9467 B( 21-N , 22-C ) :   2.6723
B( 22-C , 23-C ) :   0.9034 B( 23-C , 24-H ) :   0.9429 B( 23-C , 25-H ) :   0.9375
B( 23-C , 26-H ) :   0.9157 B( 30-N , 31-C ) :   2.6690 B( 31-C , 32-C ) :   0.9452
B( 33-C , 34-C ) :   0.9343 B( 33-C , 36-N ) :   2.6157 B( 34-C , 35-H ) :   0.9071
B( 37-C , 38-C ) :   0.9397 B( 37-C , 40-H ) :   0.9326 B( 37-C , 41-H ) :   0.9336
B( 37-C , 42-H ) :   0.9422 B( 38-C , 39-N ) :   2.7800 B( 43-C , 44-C ) :   0.9524
B( 43-C , 46-H ) :   0.9391 B( 43-C , 47-H ) :   0.9252 B( 43-C , 48-H ) :   0.9446
B( 44-C , 45-N ) :   2.7583 B( 49-C , 50-C ) :   0.9743 B( 49-C , 52-H ) :   0.9424
B( 49-C , 53-H ) :   0.9429 B( 49-C , 54-H ) :   0.9184 B( 50-C , 51-N ) :   2.7090
B( 55-C , 56-C ) :   0.9648 B( 55-C , 58-H ) :   0.9422 B( 55-C , 59-H ) :   0.9431
B( 55-C , 60-H ) :   0.9196 B( 56-C , 57-N ) :   2.7905 B( 61-C , 62-C ) :   0.9685
B( 61-C , 64-H ) :   0.9400 B( 61-C , 65-H ) :   0.9403 B( 61-C , 66-H ) :   0.9402
B( 62-C , 63-N ) :   2.8064 B( 67-C , 68-C ) :   0.9352 B( 67-C , 70-H ) :   0.9443
B( 67-C , 71-H ) :   0.9357 B( 67-C , 72-H ) :   0.9178 B( 68-C , 69-N ) :   2.7223
B( 73-C , 74-C ) :   0.9157 B( 73-C , 76-H ) :   0.9196 B( 73-C , 77-H ) :   0.9353
B( 73-C , 78-H ) :   0.9304 B( 74-C , 75-N ) :   2.8123 B( 79-C , 80-C ) :   0.9096
B( 79-C , 82-H ) :   0.9454 B( 79-C , 83-H ) :   0.9309 B( 79-C , 84-H ) :   0.9288
B( 80-C , 81-N ) :   2.7041 B( 85-C , 86-C ) :   0.9434 B( 85-C , 88-H ) :   0.9294
B( 85-C , 89-H ) :   0.9431 B( 85-C , 90-H ) :   0.9366 B( 86-C , 87-N ) :   2.7680
B( 91-C , 92-C ) :   0.9594 B( 91-C , 94-H ) :   0.9415 B( 91-C , 95-H ) :   0.9204
B( 91-C , 96-H ) :   0.9424 B( 92-C , 93-N ) :   2.8096 B( 97-C , 98-C ) :   0.9355
B( 97-C ,100-H ) :   0.9403 B( 97-C ,101-H ) :   0.9428 B( 97-C ,102-H ) :   0.9269
B( 98-C , 99-N ) :   2.7043 B(103-C ,104-C ) :   0.9716 B(103-C ,106-H ) :   0.9244
B(103-C ,107-H ) :   0.9264 B(103-C ,108-H ) :   0.9452 B(104-C ,105-N ) :   2.7206
B(109-C ,110-C ) :   0.9652 B(109-C ,112-H ) :   0.9215 B(109-C ,113-H ) :   0.9418
B(109-C ,114-H ) :   0.9407 B(110-C ,111-N ) :   2.7644 B(115-C ,116-C ) :   0.9653
B(115-C ,118-H ) :   0.9178 B(115-C ,119-H ) :   0.9443 B(115-C ,120-H ) :   0.9422
B(116-C ,117-N ) :   2.7791

Dispersion correction           -0.051303178
FINAL SINGLE POINT ENERGY     -2816.800253209672

DIPOLE MOMENT
-------------
                                X             Y             Z
Electronic contribution:      0.24570       1.34577      -0.60879
Nuclear contribution   :      1.72492      -3.12342      -0.06505
                        -----------------------------------------
Total Dipole Moment    :      1.97063      -1.77765      -0.67385
                        -----------------------------------------
Magnitude (a.u.)       :      2.73815
Magnitude (Debye)      :      6.95982

Rotational constants in cm-1:     0.001306     0.000749     0.000651
Rotational constants in MHz :    39.145637    22.450212    19.506332

                             ****ORCA TERMINATED NORMALLY****
TOTAL RUN TIME: 0 days 0 hours 6 minutes 15 seconds 660 msec
