                         Program Version 5.0.4 -  RELEASE  -
|  1> ! r2SCAN-3c ENERGY TightSCF defgrid3 def2/J
|  2> %maxcore 8000
|  3> %PAL NPROCS 8 END
|  4> %CPCM SMD TRUE
|  5>       SMDSOLVENT "MeCN"
|  6> END
|  7> *xyzfile 1 1  xtbopt.xyz
|  8>
|  9>                          ****END OF INPUT****

CARTESIAN COORDINATES (ANGSTROEM)
---------------------------------
  H     -4.922472   -3.806582   -0.111525
  H      1.689770   -0.840238    4.685354
  C     -0.944259    4.356564   -1.073400
  H      0.090867   -0.110607    4.959884
  H     -5.517419   -2.512154    0.954360
  H      1.428764    0.888090    4.356509
  N     -0.667581    1.827161   -0.707780
  H     -2.001243    4.616440   -1.043911
  H     -0.529177    4.633132   -2.041486
  H     -0.415591    4.899233   -0.287660
  N      2.037805   -1.173052   -1.040970
  C      3.101481   -1.123164   -1.459276
  C     -0.789331    2.953745   -0.869445
  C      4.430021   -1.067951   -1.979842
  Na    -0.418866   -0.604328   -0.450573
  N     -0.979612   -1.635598   -2.578909
  C     -1.353249   -2.410128   -3.333051
  C     -1.815893   -3.388978   -4.262391
  H      4.984970   -0.274626   -1.481027
  H      4.394428   -0.867447   -3.049766
  H      4.931943   -2.019186   -1.806821
  N     -0.827277   -5.313366   -1.806996
  C     -0.393388   -4.695937   -0.944436
  C      0.146515   -3.938032    0.137821
  H     -0.647472   -3.349354    0.594463
  H      0.910832   -3.260769   -0.239866
  H      0.580295   -4.610912    0.875759
  H     -1.263071   -3.305140   -5.196522
  H     -2.878584   -3.245477   -4.449738
  H     -1.651479   -4.375478   -3.826879
  N      0.305606   -0.663172    1.905333
  C      0.601852   -0.410169    2.980435
  C      0.975332   -0.101409    4.324370
  C     -3.662359   -2.187310    0.107074
  C     -4.978951   -2.728492    0.032876
  H     -5.508157   -2.279704   -0.809109
  N     -2.602517   -1.759253    0.169486
  C     -8.014409   -0.304542   -4.353321
  C     -7.228302   -0.917797   -3.327956
  N     -6.597552   -1.407902   -2.507701
  H     -8.800994   -0.989878   -4.667344
  H     -7.378896   -0.066254   -5.205497
  H     -8.463308    0.610222   -3.967888
  C     11.597372   -2.059480    0.243773
  C     10.197597   -1.837365    0.033168
  N      9.079621   -1.658776   -0.136080
  H     11.847127   -3.084964   -0.025804
  H     11.838688   -1.890929    1.292538
  H     12.171218   -1.371500   -0.376018
  C      2.219665    6.974717    3.021205
  C      1.360319    6.435587    2.013649
  N      0.672437    6.004544    1.206219
  H      2.089727    8.055290    3.070820
  H      3.255711    6.744908    2.774901
  H      1.968258    6.534289    3.985406
  C     -3.675230    5.323776    4.296589
  C     -2.536366    4.628451    4.818431
  N     -1.624718    4.074769    5.234175
  H     -3.379939    5.891019    3.414832
  H     -4.063311    6.004199    5.053750
  H     -4.446592    4.604075    4.025622

 Total Charge           Charge          ....    1
 Multiplicity           Mult            ....    1
 Number of Electrons    NEL             ....  230
 Basis Dimension        Dim             ....  784

ORBITAL ENERGIES
----------------

  NO   OCC          E(Eh)            E(eV)
   0   2.0000     -38.184676     -1039.0579
   1   2.0000     -14.165791      -385.4708
   2   2.0000     -14.165436      -385.4611
   3   2.0000     -14.165367      -385.4592
   4   2.0000     -14.163700      -385.4139
   5   2.0000     -14.162886      -385.3917
   6   2.0000     -14.159313      -385.2945
   7   2.0000     -14.159158      -385.2903
   8   2.0000     -14.157941      -385.2572
   9   2.0000     -14.157522      -385.2458
  10   2.0000     -14.157192      -385.2368
  11   2.0000     -10.091013      -274.5904
  12   2.0000     -10.090780      -274.5841
  13   2.0000     -10.090123      -274.5662
  14   2.0000     -10.088907      -274.5331
  15   2.0000     -10.087755      -274.5018
  16   2.0000     -10.083756      -274.3929
  17   2.0000     -10.083430      -274.3841
  18   2.0000     -10.081583      -274.3338
  19   2.0000     -10.080561      -274.3060
  20   2.0000     -10.080232      -274.2970
  21   2.0000     -10.064064      -273.8571
  22   2.0000     -10.063689      -273.8469
  23   2.0000     -10.062372      -273.8111
  24   2.0000     -10.062362      -273.8108
  25   2.0000     -10.061748      -273.7941
  26   2.0000     -10.061499      -273.7873
  27   2.0000     -10.060777      -273.7677
  28   2.0000     -10.060071      -273.7485
  29   2.0000     -10.056352      -273.6473
  30   2.0000     -10.056189      -273.6428
  31   2.0000      -2.114939       -57.5504
  32   2.0000      -1.036288       -28.1988
  33   2.0000      -1.035726       -28.1835
  34   2.0000      -1.035031       -28.1646
  35   2.0000      -0.893653       -24.3175
  36   2.0000      -0.892768       -24.2935
  37   2.0000      -0.892488       -24.2858
  38   2.0000      -0.892057       -24.2741
  39   2.0000      -0.890014       -24.2185
  40   2.0000      -0.886865       -24.1328
  41   2.0000      -0.886600       -24.1256
  42   2.0000      -0.884515       -24.0689
  43   2.0000      -0.884219       -24.0608
  44   2.0000      -0.883924       -24.0528
  45   2.0000      -0.739881       -20.1332
  46   2.0000      -0.739588       -20.1252
  47   2.0000      -0.738420       -20.0934
  48   2.0000      -0.737398       -20.0656
  49   2.0000      -0.737080       -20.0570
  50   2.0000      -0.736677       -20.0460
  51   2.0000      -0.735850       -20.0235
  52   2.0000      -0.735326       -20.0092
  53   2.0000      -0.735159       -20.0047
  54   2.0000      -0.734834       -19.9959
  55   2.0000      -0.479283       -13.0419
  56   2.0000      -0.477554       -12.9949
  57   2.0000      -0.477418       -12.9912
  58   2.0000      -0.476782       -12.9739
  59   2.0000      -0.475285       -12.9332
  60   2.0000      -0.473562       -12.8863
  61   2.0000      -0.472413       -12.8550
  62   2.0000      -0.472397       -12.8546
  63   2.0000      -0.472297       -12.8519
  64   2.0000      -0.471852       -12.8397
  65   2.0000      -0.429993       -11.7007
  66   2.0000      -0.425433       -11.5766
  67   2.0000      -0.423656       -11.5283
  68   2.0000      -0.423457       -11.5228
  69   2.0000      -0.423295       -11.5184
  70   2.0000      -0.422980       -11.5099
  71   2.0000      -0.422934       -11.5086
  72   2.0000      -0.422433       -11.4950
  73   2.0000      -0.421259       -11.4630
  74   2.0000      -0.420858       -11.4521
  75   2.0000      -0.420800       -11.4506
  76   2.0000      -0.420653       -11.4465
  77   2.0000      -0.420549       -11.4437
  78   2.0000      -0.420246       -11.4355
  79   2.0000      -0.419724       -11.4213
  80   2.0000      -0.419609       -11.4181
  81   2.0000      -0.419357       -11.4113
  82   2.0000      -0.419316       -11.4102
  83   2.0000      -0.418575       -11.3900
  84   2.0000      -0.418269       -11.3817
  85   2.0000      -0.377127       -10.2621
  86   2.0000      -0.363246        -9.8844
  87   2.0000      -0.362356        -9.8602
  88   2.0000      -0.360303        -9.8043
  89   2.0000      -0.350287        -9.5318
  90   2.0000      -0.348159        -9.4739
  91   2.0000      -0.346969        -9.4415
  92   2.0000      -0.345002        -9.3880
  93   2.0000      -0.344135        -9.3644
  94   2.0000      -0.343880        -9.3574
  95   2.0000      -0.322234        -8.7684
  96   2.0000      -0.319561        -8.6957
  97   2.0000      -0.318975        -8.6797
  98   2.0000      -0.317961        -8.6521
  99   2.0000      -0.316584        -8.6147
 100   2.0000      -0.316159        -8.6031
 101   2.0000      -0.313960        -8.5433
 102   2.0000      -0.313148        -8.5212
 103   2.0000      -0.312858        -8.5133
 104   2.0000      -0.312632        -8.5071
 105   2.0000      -0.312416        -8.5013
 106   2.0000      -0.312170        -8.4946
 107   2.0000      -0.310493        -8.4490
 108   2.0000      -0.310433        -8.4473
 109   2.0000      -0.310221        -8.4416
 110   2.0000      -0.310203        -8.4411
 111   2.0000      -0.309276        -8.4158
 112   2.0000      -0.308297        -8.3892
 113   2.0000      -0.307355        -8.3635
 114   2.0000      -0.305630        -8.3166
 115   0.0000      -0.010058        -0.2737
 116   0.0000      -0.008263        -0.2248
 117   0.0000      -0.006941        -0.1889
 118   0.0000      -0.005751        -0.1565
 119   0.0000      -0.002447        -0.0666

MULLIKEN ATOMIC CHARGES
-----------------------
   0 H :    0.212674
   1 H :    0.215009
   2 C :   -0.609400
   3 H :    0.215637
   4 H :    0.212173
   5 H :    0.215672
   6 N :   -0.416657
   7 H :    0.212572
   8 H :    0.212781
   9 H :    0.237606
  10 N :   -0.408431
  11 C :    0.388872
  12 C :    0.386263
  13 C :   -0.585691
  14 Na:    0.814558
  15 N :   -0.407854
  16 C :    0.396117
  17 C :   -0.616208
  18 H :    0.215234
  19 H :    0.214708
  20 H :    0.215153
  21 N :   -0.374537
  22 C :    0.365861
  23 C :   -0.651818
  24 H :    0.226936
  25 H :    0.224771
  26 H :    0.213952
  27 H :    0.214325
  28 H :    0.214293
  29 H :    0.228174
  30 N :   -0.414634
  31 C :    0.392793
  32 C :   -0.588568
  33 C :    0.378456
  34 C :   -0.608142
  35 H :    0.235493
  36 N :   -0.409161
  37 C :   -0.568196
  38 C :    0.311008
  39 N :   -0.366402
  40 H :    0.212600
  41 H :    0.212764
  42 H :    0.212600
  43 C :   -0.566229
  44 C :    0.295288
  45 N :   -0.363059
  46 H :    0.211551
  47 H :    0.211598
  48 H :    0.211342
  49 C :   -0.568542
  50 C :    0.312928
  51 N :   -0.367631
  52 H :    0.212989
  53 H :    0.212695
  54 H :    0.212834
  55 C :   -0.566247
  56 C :    0.299170
  57 N :   -0.366586
  58 H :    0.211333
  59 H :    0.211545
  60 H :    0.211664
Sum of atomic charges:    1.0000000

LOEWDIN ATOMIC CHARGES
----------------------
   0 H :    0.202208
   1 H :    0.203533
   2 C :   -0.356990
   3 H :    0.203413
   4 H :    0.201908
   5 H :    0.203429
   6 N :   -0.384637
   7 H :    0.202146
   8 H :    0.202397
   9 H :    0.220692
  10 N :   -0.382712
  11 C :    0.196230
  12 C :    0.199090
  13 C :   -0.346025
  14 Na:    0.550446
  15 N :   -0.381902
  16 C :    0.196856
  17 C :   -0.349728
  18 H :    0.203252
  19 H :    0.203060
  20 H :    0.203513
  21 N :   -0.408127
  22 C :    0.162379
  23 C :   -0.349447
  24 H :    0.211506
  25 H :    0.213223
  26 H :    0.203254
  27 H :    0.202712
  28 H :    0.202722
  29 H :    0.211845
  30 N :   -0.380276
  31 C :    0.199072
  32 C :   -0.345352
  33 C :    0.195537
  34 C :   -0.357175
  35 H :    0.218499
  36 N :   -0.386977
  37 C :   -0.351134
  38 C :    0.163334
  39 N :   -0.408549
  40 H :    0.201334
  41 H :    0.201383
  42 H :    0.201349
  43 C :   -0.352044
  44 C :    0.152938
  45 N :   -0.401772
  46 H :    0.200410
  47 H :    0.200390
  48 H :    0.200378
  49 C :   -0.350968
  50 C :    0.164549
  51 N :   -0.410161
  52 H :    0.201514
  53 H :    0.201456
  54 H :    0.201547
  55 C :   -0.351882
  56 C :    0.152791
  57 N :   -0.401802
  58 H :    0.200438
  59 H :    0.200465
  60 H :    0.200463

  Mayer bond orders larger than 0.100000
B(  0-H , 34-C ) :   0.9402 B(  1-H , 32-C ) :   0.9384 B(  2-C ,  7-H ) :   0.9433
B(  2-C ,  8-H ) :   0.9431 B(  2-C ,  9-H ) :   0.9163 B(  2-C , 12-C ) :   0.9683
B(  3-H , 32-C ) :   0.9398 B(  4-H , 34-C ) :   0.9441 B(  5-H , 32-C ) :   0.9405
B(  6-N , 12-C ) :   2.5521 B( 10-N , 11-C ) :   2.5894 B( 11-C , 13-C ) :   0.9716
B( 13-C , 18-H ) :   0.9403 B( 13-C , 19-H ) :   0.9402 B( 13-C , 20-H ) :   0.9380
B( 15-N , 16-C ) :   2.6180 B( 16-C , 17-C ) :   0.9535 B( 17-C , 27-H ) :   0.9432
B( 17-C , 28-H ) :   0.9428 B( 17-C , 29-H ) :   0.9221 B( 21-N , 22-C ) :   2.8362
B( 22-C , 23-C ) :   0.9017 B( 23-C , 24-H ) :   0.9387 B( 23-C , 25-H ) :   0.9394
B( 23-C , 26-H ) :   0.9309 B( 30-N , 31-C ) :   2.5799 B( 31-C , 32-C ) :   0.9670
B( 33-C , 34-C ) :   0.9681 B( 33-C , 36-N ) :   2.5973 B( 34-C , 35-H ) :   0.9206
B( 37-C , 38-C ) :   0.9694 B( 37-C , 40-H ) :   0.9396 B( 37-C , 41-H ) :   0.9398
B( 37-C , 42-H ) :   0.9399 B( 38-C , 39-N ) :   2.7883 B( 43-C , 44-C ) :   0.9709
B( 43-C , 46-H ) :   0.9406 B( 43-C , 47-H ) :   0.9407 B( 43-C , 48-H ) :   0.9405
B( 44-C , 45-N ) :   2.8751 B( 49-C , 50-C ) :   0.9695 B( 49-C , 52-H ) :   0.9397
B( 49-C , 53-H ) :   0.9399 B( 49-C , 54-H ) :   0.9395 B( 50-C , 51-N ) :   2.7818
B( 55-C , 56-C ) :   0.9722 B( 55-C , 58-H ) :   0.9402 B( 55-C , 59-H ) :   0.9407
B( 55-C , 60-H ) :   0.9407 B( 56-C , 57-N ) :   2.8650

Dispersion correction           -0.015906417
FINAL SINGLE POINT ENERGY     -1489.510205630285

DIPOLE MOMENT
-------------
                                X             Y             Z
Electronic contribution:     -2.62031      -7.22709      -2.54074
Nuclear contribution   :      2.89532      10.08795       2.26273
                        -----------------------------------------
Total Dipole Moment    :      0.27501       2.86086      -0.27801
                        -----------------------------------------
Magnitude (a.u.)       :      2.88746
Magnitude (Debye)      :      7.33934

Rotational constants in cm-1:     0.002262     0.001702     0.001159
Rotational constants in MHz :    67.800772    51.039382    34.739826

                             ****ORCA TERMINATED NORMALLY****
TOTAL RUN TIME: 0 days 0 hours 1 minutes 41 seconds 132 msec
