                         Program Version 5.0.4 -  RELEASE  -
|  1> ! r2SCAN-3c ENERGY TightSCF defgrid3 def2/J
|  2> %maxcore 8000
|  3> %PAL NPROCS 8 END
|  4> %CPCM SMD TRUE
|  5>       SMDSOLVENT "MeCN"
|  6> END
|  7> *xyzfile 0 1  xtbopt.xyz
|  8>
|  9>                          ****END OF INPUT****

CARTESIAN COORDINATES (ANGSTROEM)
---------------------------------
  C      2.049377    3.431800    1.618855
  C      2.182124    3.787630    0.244643
  N      2.283301    4.073008   -0.861061
  H      1.823520    4.318322    2.208930
  H      2.982822    2.987817    1.968195
  H      1.245703    2.701964    1.723934
  C     -0.398259   -1.168934   -4.152145
  C      0.395336   -1.683397   -3.084445
  N      1.034307   -2.092771   -2.225343
  H     -0.324382   -1.827287   -5.016155
  H     -0.037966   -0.173414   -4.417096
  H     -1.436583   -1.101450   -3.828019
  C      0.781347   -1.312340    1.001176
  C      0.145740   -0.086316    1.345641
  N     -0.349906    0.909230    1.625842
  H      0.792443   -1.429277   -0.083405
  H      0.243579   -2.151032    1.444040
  H      1.805322   -1.306165    1.372436
  C     -2.736900    2.820473    2.792348
  C     -3.964240    2.319508    2.259944
  N     -4.948180    1.919894    1.829318
  H     -2.597276    3.853445    2.476895
  H     -1.913374    2.208345    2.420386
  H     -2.763974    2.769498    3.879803
  C      2.617391    3.479882   -4.015807
  C      1.525356    2.619558   -4.326942
  N      0.641166    1.931565   -4.572435
  H      2.550824    4.387553   -4.613776
  H      3.556705    2.969925   -4.224521
  H      2.571892    3.736839   -2.955002
  C     -5.363155   -0.836125    0.000888
  C     -4.811652   -1.953350    0.693209
  N     -4.373558   -2.854861    1.249694
  H     -6.388711   -1.055852   -0.291167
  H     -4.765490   -0.628282   -0.887697
  H     -5.347435    0.039479    0.651989
  C     -2.502094   -5.205890    2.452663
  C     -1.175550   -4.773884    2.157638
  N     -0.110729   -4.421212    1.920610
  H     -2.692786   -6.159755    1.963123
  H     -3.206656   -4.458921    2.081456
  H     -2.621282   -5.314818    3.529602
  C      2.681700   -4.058742    0.054650
  C      3.692038   -3.312118    0.728365
  N      4.502532   -2.707676    1.269494
  H      2.301939   -3.478655   -0.786493
  H      1.861245   -4.265577    0.742494
  H      3.100645   -4.996372   -0.306979
  C     -2.298885    2.427226   -3.037209
  C     -2.951275    1.184151   -2.775682
  N     -3.469368    0.181277   -2.578324
  H     -2.065422    2.920782   -2.094991
  H     -2.952475    3.063213   -3.632450
  H     -1.373125    2.242007   -3.585238
  C      6.231579   -0.295895    2.658749
  C      5.422639    0.879316    2.611333
  N      4.770180    1.820834    2.573747
  H      5.693819   -1.120804    2.187523
  H      6.445116   -0.549377    3.696156
  H      7.164248   -0.119288    2.125163

 Total Charge           Charge          ....    0
 Multiplicity           Mult            ....    1
 Number of Electrons    NEL             ....  220
 Basis Dimension        Dim             ....  770

ORBITAL ENERGIES
----------------

  NO   OCC          E(Eh)            E(eV)
   0   2.0000     -14.156818      -385.2266
   1   2.0000     -14.156273      -385.2118
   2   2.0000     -14.156182      -385.2093
   3   2.0000     -14.156104      -385.2072
   4   2.0000     -14.155334      -385.1862
   5   2.0000     -14.155082      -385.1794
   6   2.0000     -14.154924      -385.1751
   7   2.0000     -14.154857      -385.1732
   8   2.0000     -14.154773      -385.1709
   9   2.0000     -14.154211      -385.1557
  10   2.0000     -10.081474      -274.3309
  11   2.0000     -10.080807      -274.3127
  12   2.0000     -10.080609      -274.3073
  13   2.0000     -10.080146      -274.2947
  14   2.0000     -10.079806      -274.2855
  15   2.0000     -10.079386      -274.2740
  16   2.0000     -10.079299      -274.2717
  17   2.0000     -10.079129      -274.2670
  18   2.0000     -10.078915      -274.2612
  19   2.0000     -10.078836      -274.2591
  20   2.0000     -10.056179      -273.6425
  21   2.0000     -10.053541      -273.5708
  22   2.0000     -10.053197      -273.5614
  23   2.0000     -10.052709      -273.5481
  24   2.0000     -10.052706      -273.5480
  25   2.0000     -10.052175      -273.5336
  26   2.0000     -10.051926      -273.5268
  27   2.0000     -10.050870      -273.4981
  28   2.0000     -10.050595      -273.4906
  29   2.0000     -10.050027      -273.4751
  30   2.0000      -0.884441       -24.0669
  31   2.0000      -0.883767       -24.0485
  32   2.0000      -0.883419       -24.0391
  33   2.0000      -0.883266       -24.0349
  34   2.0000      -0.882816       -24.0226
  35   2.0000      -0.882353       -24.0100
  36   2.0000      -0.882221       -24.0065
  37   2.0000      -0.882030       -24.0012
  38   2.0000      -0.881715       -23.9927
  39   2.0000      -0.881450       -23.9855
  40   2.0000      -0.734208       -19.9788
  41   2.0000      -0.733461       -19.9585
  42   2.0000      -0.732433       -19.9305
  43   2.0000      -0.731775       -19.9126
  44   2.0000      -0.731343       -19.9009
  45   2.0000      -0.731182       -19.8965
  46   2.0000      -0.731072       -19.8935
  47   2.0000      -0.729764       -19.8579
  48   2.0000      -0.729175       -19.8419
  49   2.0000      -0.728913       -19.8347
  50   2.0000      -0.476961       -12.9788
  51   2.0000      -0.473322       -12.8798
  52   2.0000      -0.472266       -12.8510
  53   2.0000      -0.471398       -12.8274
  54   2.0000      -0.470522       -12.8036
  55   2.0000      -0.468856       -12.7582
  56   2.0000      -0.468357       -12.7446
  57   2.0000      -0.466348       -12.6900
  58   2.0000      -0.465112       -12.6563
  59   2.0000      -0.464403       -12.6370
  60   2.0000      -0.425151       -11.5690
  61   2.0000      -0.423521       -11.5246
  62   2.0000      -0.421648       -11.4736
  63   2.0000      -0.421493       -11.4694
  64   2.0000      -0.420450       -11.4410
  65   2.0000      -0.419975       -11.4281
  66   2.0000      -0.419302       -11.4098
  67   2.0000      -0.418566       -11.3898
  68   2.0000      -0.418431       -11.3861
  69   2.0000      -0.416985       -11.3467
  70   2.0000      -0.416798       -11.3416
  71   2.0000      -0.416421       -11.3314
  72   2.0000      -0.416197       -11.3253
  73   2.0000      -0.415787       -11.3141
  74   2.0000      -0.415674       -11.3111
  75   2.0000      -0.415329       -11.3017
  76   2.0000      -0.413669       -11.2565
  77   2.0000      -0.413479       -11.2513
  78   2.0000      -0.411132       -11.1875
  79   2.0000      -0.409658       -11.1474
  80   2.0000      -0.348576        -9.4852
  81   2.0000      -0.347709        -9.4616
  82   2.0000      -0.346443        -9.4272
  83   2.0000      -0.345363        -9.3978
  84   2.0000      -0.343794        -9.3551
  85   2.0000      -0.342879        -9.3302
  86   2.0000      -0.342229        -9.3125
  87   2.0000      -0.341741        -9.2992
  88   2.0000      -0.340363        -9.2617
  89   2.0000      -0.339030        -9.2255
  90   2.0000      -0.316806        -8.6207
  91   2.0000      -0.314713        -8.5638
  92   2.0000      -0.312996        -8.5171
  93   2.0000      -0.310589        -8.4515
  94   2.0000      -0.309924        -8.4335
  95   2.0000      -0.309414        -8.4196
  96   2.0000      -0.308468        -8.3938
  97   2.0000      -0.308058        -8.3827
  98   2.0000      -0.307960        -8.3800
  99   2.0000      -0.307101        -8.3566
 100   2.0000      -0.306583        -8.3426
 101   2.0000      -0.304097        -8.2749
 102   2.0000      -0.303073        -8.2470
 103   2.0000      -0.301934        -8.2160
 104   2.0000      -0.301302        -8.1988
 105   2.0000      -0.300237        -8.1699
 106   2.0000      -0.299505        -8.1499
 107   2.0000      -0.298102        -8.1118
 108   2.0000      -0.295844        -8.0503
 109   2.0000      -0.295405        -8.0384
 110   0.0000      -0.003712        -0.1010
 111   0.0000      -0.002523        -0.0687
 112   0.0000      -0.002127        -0.0579
 113   0.0000       0.003024         0.0823
 114   0.0000       0.003485         0.0948

MULLIKEN ATOMIC CHARGES
-----------------------
   0 C :   -0.599102
   1 C :    0.312994
   2 N :   -0.373025
   3 H :    0.209313
   4 H :    0.230160
   5 H :    0.215450
   6 C :   -0.614937
   7 C :    0.343047
   8 N :   -0.381408
   9 H :    0.209318
  10 H :    0.231913
  11 H :    0.215190
  12 C :   -0.557551
  13 C :    0.300320
  14 N :   -0.393086
  15 H :    0.222589
  16 H :    0.219406
  17 H :    0.210790
  18 C :   -0.589385
  19 C :    0.312000
  20 N :   -0.377556
  21 H :    0.209912
  22 H :    0.231509
  23 H :    0.209807
  24 C :   -0.598451
  25 C :    0.340844
  26 N :   -0.393609
  27 H :    0.210762
  28 H :    0.210249
  29 H :    0.234483
  30 C :   -0.591149
  31 C :    0.303893
  32 N :   -0.370073
  33 H :    0.208954
  34 H :    0.221546
  35 H :    0.222413
  36 C :   -0.599605
  37 C :    0.330716
  38 N :   -0.385997
  39 H :    0.209387
  40 H :    0.237800
  41 H :    0.209902
  42 C :   -0.592891
  43 C :    0.282308
  44 N :   -0.364113
  45 H :    0.231720
  46 H :    0.230718
  47 H :    0.208933
  48 C :   -0.598014
  49 C :    0.343289
  50 N :   -0.386673
  51 H :    0.212422
  52 H :    0.211959
  53 H :    0.221871
  54 C :   -0.589352
  55 C :    0.306828
  56 N :   -0.371963
  57 H :    0.233331
  58 H :    0.210241
  59 H :    0.209654
Sum of atomic charges:   -0.0000000

LOEWDIN ATOMIC CHARGES
----------------------
   0 C :   -0.364830
   1 C :    0.164065
   2 N :   -0.420264
   3 H :    0.199374
   4 H :    0.216733
   5 H :    0.209165
   6 C :   -0.359292
   7 C :    0.167672
   8 N :   -0.428407
   9 H :    0.199788
  10 H :    0.217191
  11 H :    0.204830
  12 C :   -0.360019
  13 C :    0.169495
  14 N :   -0.431004
  15 H :    0.217020
  16 H :    0.213779
  17 H :    0.205175
  18 C :   -0.361973
  19 C :    0.161204
  20 N :   -0.421069
  21 H :    0.199873
  22 H :    0.217206
  23 H :    0.199831
  24 C :   -0.361736
  25 C :    0.170976
  26 N :   -0.438131
  27 H :    0.200510
  28 H :    0.200497
  29 H :    0.219796
  30 C :   -0.364952
  31 C :    0.163721
  32 N :   -0.418527
  33 H :    0.199379
  34 H :    0.213512
  35 H :    0.214327
  36 C :   -0.363541
  37 C :    0.166100
  38 N :   -0.429150
  39 H :    0.199851
  40 H :    0.219261
  41 H :    0.199868
  42 C :   -0.370316
  43 C :    0.156107
  44 N :   -0.418204
  45 H :    0.212559
  46 H :    0.214946
  47 H :    0.199307
  48 C :   -0.355472
  49 C :    0.160729
  50 N :   -0.421181
  51 H :    0.201019
  52 H :    0.200905
  53 H :    0.214249
  54 C :   -0.363216
  55 C :    0.161471
  56 N :   -0.417091
  57 H :    0.217341
  58 H :    0.199924
  59 H :    0.199617

  Mayer bond orders larger than 0.100000
B(  0-C ,  1-C ) :   0.9608 B(  0-C ,  3-H ) :   0.9433 B(  0-C ,  4-H ) :   0.9211
B(  0-C ,  5-H ) :   0.9291 B(  1-C ,  2-N ) :   2.7938 B(  6-C ,  7-C ) :   0.9466
B(  6-C ,  9-H ) :   0.9415 B(  6-C , 10-H ) :   0.9206 B(  6-C , 11-H ) :   0.9397
B(  7-C ,  8-N ) :   2.7650 B( 12-C , 13-C ) :   1.0785 B( 12-C , 15-H ) :   0.9164
B( 12-C , 16-H ) :   0.9195 B( 12-C , 17-H ) :   0.9251 B( 13-C , 14-N ) :   2.7164
B( 18-C , 19-C ) :   0.9716 B( 18-C , 21-H ) :   0.9435 B( 18-C , 22-H ) :   0.9167
B( 18-C , 23-H ) :   0.9432 B( 19-C , 20-N ) :   2.8184 B( 24-C , 25-C ) :   0.9715
B( 24-C , 27-H ) :   0.9433 B( 24-C , 28-H ) :   0.9434 B( 24-C , 29-H ) :   0.9135
B( 25-C , 26-N ) :   2.7524 B( 30-C , 31-C ) :   0.9686 B( 30-C , 33-H ) :   0.9437
B( 30-C , 34-H ) :   0.9251 B( 30-C , 35-H ) :   0.9226 B( 31-C , 32-N ) :   2.7841
B( 36-C , 37-C ) :   0.9690 B( 36-C , 39-H ) :   0.9437 B( 36-C , 40-H ) :   0.9148
B( 36-C , 41-H ) :   0.9436 B( 37-C , 38-N ) :   2.7656 B( 42-C , 43-C ) :   0.9431
B( 42-C , 45-H ) :   0.9372 B( 42-C , 46-H ) :   0.9310 B( 42-C , 47-H ) :   0.9338
B( 43-C , 44-N ) :   2.7903 B( 48-C , 49-C ) :   0.9648 B( 48-C , 51-H ) :   0.9437
B( 48-C , 52-H ) :   0.9430 B( 48-C , 53-H ) :   0.9210 B( 49-C , 50-N ) :   2.7959
B( 54-C , 55-C ) :   0.9691 B( 54-C , 57-H ) :   0.9168 B( 54-C , 58-H ) :   0.9435
B( 54-C , 59-H ) :   0.9436 B( 55-C , 56-N ) :   2.8045

Dispersion correction           -0.017852156
FINAL SINGLE POINT ENERGY     -1327.263249788241

DIPOLE MOMENT
-------------
                                X             Y             Z
Electronic contribution:     -1.04116      -0.50531       0.71298
Nuclear contribution   :      1.93724       0.93722      -1.54031
                        -----------------------------------------
Total Dipole Moment    :      0.89608       0.43190      -0.82733
                        -----------------------------------------
Magnitude (a.u.)       :      1.29382
Magnitude (Debye)      :      3.28863

Rotational constants in cm-1:     0.003090     0.002660     0.002158
Rotational constants in MHz :    92.649720    79.749935    64.705769

                             ****ORCA TERMINATED NORMALLY****
TOTAL RUN TIME: 0 days 0 hours 1 minutes 37 seconds 67 msec
